PSF

     486 !NTITLE
 REMARKS original generated structure x-plor psf file
 REMARKS topology /usr/local/vmd/lib/vmd/plugins/noarch/tcl/readcharmmtop1.2/top_all27_prot_lipid_na.inp 
 REMARKS topology adsorbate_autopsf-temp.top 
 REMARKS topology /usr/local/vmd/lib/vmd/plugins/noarch/tcl/solvate1.7/wat.top 
 REMARKS segment 160 { first ; last ; auto none  }
 REMARKS segment 161 { first ; last ; auto none  }
 REMARKS segment 162 { first ; last ; auto none  }
 REMARKS segment 163 { first ; last ; auto none  }
 REMARKS segment 164 { first ; last ; auto none  }
 REMARKS segment 165 { first ; last ; auto none  }
 REMARKS segment 166 { first ; last ; auto none  }
 REMARKS segment 167 { first ; last ; auto none  }
 REMARKS segment 168 { first ; last ; auto none  }
 REMARKS segment 169 { first ; last ; auto none  }
 REMARKS segment 170 { first ; last ; auto none  }
 REMARKS segment 171 { first ; last ; auto none  }
 REMARKS segment 172 { first ; last ; auto none  }
 REMARKS segment 173 { first ; last ; auto none  }
 REMARKS segment 174 { first ; last ; auto none  }
 REMARKS segment 175 { first ; last ; auto none  }
 REMARKS segment 176 { first ; last ; auto none  }
 REMARKS segment 177 { first ; last ; auto none  }
 REMARKS segment 178 { first ; last ; auto none  }
 REMARKS segment 179 { first ; last ; auto none  }
 REMARKS segment 180 { first ; last ; auto none  }
 REMARKS segment 181 { first ; last ; auto none  }
 REMARKS segment 182 { first ; last ; auto none  }
 REMARKS segment 183 { first ; last ; auto none  }
 REMARKS segment 184 { first ; last ; auto none  }
 REMARKS segment 185 { first ; last ; auto none  }
 REMARKS segment 186 { first ; last ; auto none  }
 REMARKS segment 187 { first ; last ; auto none  }
 REMARKS segment 188 { first ; last ; auto none  }
 REMARKS segment 189 { first ; last ; auto none  }
 REMARKS segment 190 { first ; last ; auto none  }
 REMARKS segment 191 { first ; last ; auto none  }
 REMARKS segment 192 { first ; last ; auto none  }
 REMARKS segment 193 { first ; last ; auto none  }
 REMARKS segment 194 { first ; last ; auto none  }
 REMARKS segment 195 { first ; last ; auto none  }
 REMARKS segment 196 { first ; last ; auto none  }
 REMARKS segment 197 { first ; last ; auto none  }
 REMARKS segment 198 { first ; last ; auto none  }
 REMARKS segment 199 { first ; last ; auto none  }
 REMARKS segment 200 { first ; last ; auto none  }
 REMARKS segment 201 { first ; last ; auto none  }
 REMARKS segment 202 { first ; last ; auto none  }
 REMARKS segment 203 { first ; last ; auto none  }
 REMARKS segment 204 { first ; last ; auto none  }
 REMARKS segment 205 { first ; last ; auto none  }
 REMARKS segment 206 { first ; last ; auto none  }
 REMARKS segment 207 { first ; last ; auto none  }
 REMARKS segment 208 { first ; last ; auto none  }
 REMARKS segment 209 { first ; last ; auto none  }
 REMARKS segment 210 { first ; last ; auto none  }
 REMARKS segment 211 { first ; last ; auto none  }
 REMARKS segment 212 { first ; last ; auto none  }
 REMARKS segment 213 { first ; last ; auto none  }
 REMARKS segment 214 { first ; last ; auto none  }
 REMARKS segment 215 { first ; last ; auto none  }
 REMARKS segment 216 { first ; last ; auto none  }
 REMARKS segment 217 { first ; last ; auto none  }
 REMARKS segment 218 { first ; last ; auto none  }
 REMARKS segment 219 { first ; last ; auto none  }
 REMARKS segment 220 { first ; last ; auto none  }
 REMARKS segment 221 { first ; last ; auto none  }
 REMARKS segment 222 { first ; last ; auto none  }
 REMARKS segment 223 { first ; last ; auto none  }
 REMARKS segment 224 { first ; last ; auto none  }
 REMARKS segment 225 { first ; last ; auto none  }
 REMARKS segment 226 { first ; last ; auto none  }
 REMARKS segment 227 { first ; last ; auto none  }
 REMARKS segment 228 { first ; last ; auto none  }
 REMARKS segment 229 { first ; last ; auto none  }
 REMARKS segment 230 { first ; last ; auto none  }
 REMARKS segment 231 { first ; last ; auto none  }
 REMARKS segment 232 { first ; last ; auto none  }
 REMARKS segment 233 { first ; last ; auto none  }
 REMARKS segment 234 { first ; last ; auto none  }
 REMARKS segment 235 { first ; last ; auto none  }
 REMARKS segment 236 { first ; last ; auto none  }
 REMARKS segment 237 { first ; last ; auto none  }
 REMARKS segment 238 { first ; last ; auto none  }
 REMARKS segment 239 { first ; last ; auto none  }
 REMARKS segment 240 { first ; last ; auto none  }
 REMARKS segment 241 { first ; last ; auto none  }
 REMARKS segment 242 { first ; last ; auto none  }
 REMARKS segment 243 { first ; last ; auto none  }
 REMARKS segment 244 { first ; last ; auto none  }
 REMARKS segment 245 { first ; last ; auto none  }
 REMARKS segment 246 { first ; last ; auto none  }
 REMARKS segment 247 { first ; last ; auto none  }
 REMARKS segment 248 { first ; last ; auto none  }
 REMARKS segment 249 { first ; last ; auto none  }
 REMARKS segment 250 { first ; last ; auto none  }
 REMARKS segment 251 { first ; last ; auto none  }
 REMARKS segment 252 { first ; last ; auto none  }
 REMARKS segment 253 { first ; last ; auto none  }
 REMARKS segment 254 { first ; last ; auto none  }
 REMARKS segment 255 { first ; last ; auto none  }
 REMARKS segment 256 { first ; last ; auto none  }
 REMARKS segment 257 { first ; last ; auto none  }
 REMARKS segment 258 { first ; last ; auto none  }
 REMARKS segment 259 { first ; last ; auto none  }
 REMARKS segment 260 { first ; last ; auto none  }
 REMARKS segment 261 { first ; last ; auto none  }
 REMARKS segment 262 { first ; last ; auto none  }
 REMARKS segment 263 { first ; last ; auto none  }
 REMARKS segment 264 { first ; last ; auto none  }
 REMARKS segment 265 { first ; last ; auto none  }
 REMARKS segment 266 { first ; last ; auto none  }
 REMARKS segment 267 { first ; last ; auto none  }
 REMARKS segment 268 { first ; last ; auto none  }
 REMARKS segment 269 { first ; last ; auto none  }
 REMARKS segment 270 { first ; last ; auto none  }
 REMARKS segment 271 { first ; last ; auto none  }
 REMARKS segment 272 { first ; last ; auto none  }
 REMARKS segment 273 { first ; last ; auto none  }
 REMARKS segment 274 { first ; last ; auto none  }
 REMARKS segment 275 { first ; last ; auto none  }
 REMARKS segment 276 { first ; last ; auto none  }
 REMARKS segment 277 { first ; last ; auto none  }
 REMARKS segment 278 { first ; last ; auto none  }
 REMARKS segment 279 { first ; last ; auto none  }
 REMARKS segment 280 { first ; last ; auto none  }
 REMARKS segment 281 { first ; last ; auto none  }
 REMARKS segment 282 { first ; last ; auto none  }
 REMARKS segment 283 { first ; last ; auto none  }
 REMARKS segment 284 { first ; last ; auto none  }
 REMARKS segment 285 { first ; last ; auto none  }
 REMARKS segment 286 { first ; last ; auto none  }
 REMARKS segment 287 { first ; last ; auto none  }
 REMARKS segment 288 { first ; last ; auto none  }
 REMARKS segment 289 { first ; last ; auto none  }
 REMARKS segment 290 { first ; last ; auto none  }
 REMARKS segment 291 { first ; last ; auto none  }
 REMARKS segment 292 { first ; last ; auto none  }
 REMARKS segment 293 { first ; last ; auto none  }
 REMARKS segment 294 { first ; last ; auto none  }
 REMARKS segment 295 { first ; last ; auto none  }
 REMARKS segment 296 { first ; last ; auto none  }
 REMARKS segment 297 { first ; last ; auto none  }
 REMARKS segment 298 { first ; last ; auto none  }
 REMARKS segment 299 { first ; last ; auto none  }
 REMARKS segment 300 { first ; last ; auto none  }
 REMARKS segment 301 { first ; last ; auto none  }
 REMARKS segment 302 { first ; last ; auto none  }
 REMARKS segment 303 { first ; last ; auto none  }
 REMARKS segment 304 { first ; last ; auto none  }
 REMARKS segment 305 { first ; last ; auto none  }
 REMARKS segment 306 { first ; last ; auto none  }
 REMARKS segment 307 { first ; last ; auto none  }
 REMARKS segment 308 { first ; last ; auto none  }
 REMARKS segment 309 { first ; last ; auto none  }
 REMARKS segment 310 { first ; last ; auto none  }
 REMARKS segment 311 { first ; last ; auto none  }
 REMARKS segment 312 { first ; last ; auto none  }
 REMARKS segment 313 { first ; last ; auto none  }
 REMARKS segment 314 { first ; last ; auto none  }
 REMARKS segment 315 { first ; last ; auto none  }
 REMARKS segment 316 { first ; last ; auto none  }
 REMARKS segment 317 { first ; last ; auto none  }
 REMARKS segment 318 { first ; last ; auto none  }
 REMARKS segment 319 { first ; last ; auto none  }
 REMARKS segment 320 { first ; last ; auto none  }
 REMARKS segment 321 { first ; last ; auto none  }
 REMARKS segment 322 { first ; last ; auto none  }
 REMARKS segment 323 { first ; last ; auto none  }
 REMARKS segment 324 { first ; last ; auto none  }
 REMARKS segment 325 { first ; last ; auto none  }
 REMARKS segment 326 { first ; last ; auto none  }
 REMARKS segment 327 { first ; last ; auto none  }
 REMARKS segment 328 { first ; last ; auto none  }
 REMARKS segment 329 { first ; last ; auto none  }
 REMARKS segment 330 { first ; last ; auto none  }
 REMARKS segment 331 { first ; last ; auto none  }
 REMARKS segment 332 { first ; last ; auto none  }
 REMARKS segment 333 { first ; last ; auto none  }
 REMARKS segment 334 { first ; last ; auto none  }
 REMARKS segment 335 { first ; last ; auto none  }
 REMARKS segment 336 { first ; last ; auto none  }
 REMARKS segment 337 { first ; last ; auto none  }
 REMARKS segment 338 { first ; last ; auto none  }
 REMARKS segment 339 { first ; last ; auto none  }
 REMARKS segment 340 { first ; last ; auto none  }
 REMARKS segment 341 { first ; last ; auto none  }
 REMARKS segment 342 { first ; last ; auto none  }
 REMARKS segment 343 { first ; last ; auto none  }
 REMARKS segment 344 { first ; last ; auto none  }
 REMARKS segment 345 { first ; last ; auto none  }
 REMARKS segment 346 { first ; last ; auto none  }
 REMARKS segment 347 { first ; last ; auto none  }
 REMARKS segment 348 { first ; last ; auto none  }
 REMARKS segment 349 { first ; last ; auto none  }
 REMARKS segment 350 { first ; last ; auto none  }
 REMARKS segment 351 { first ; last ; auto none  }
 REMARKS segment 352 { first ; last ; auto none  }
 REMARKS segment 353 { first ; last ; auto none  }
 REMARKS segment 354 { first ; last ; auto none  }
 REMARKS segment 355 { first ; last ; auto none  }
 REMARKS segment 356 { first ; last ; auto none  }
 REMARKS segment 357 { first ; last ; auto none  }
 REMARKS segment 358 { first ; last ; auto none  }
 REMARKS segment 359 { first ; last ; auto none  }
 REMARKS segment 360 { first ; last ; auto none  }
 REMARKS segment 361 { first ; last ; auto none  }
 REMARKS segment 362 { first ; last ; auto none  }
 REMARKS segment 363 { first ; last ; auto none  }
 REMARKS segment 364 { first ; last ; auto none  }
 REMARKS segment 365 { first ; last ; auto none  }
 REMARKS segment 366 { first ; last ; auto none  }
 REMARKS segment 367 { first ; last ; auto none  }
 REMARKS segment 368 { first ; last ; auto none  }
 REMARKS segment 369 { first ; last ; auto none  }
 REMARKS segment 370 { first ; last ; auto none  }
 REMARKS segment 371 { first ; last ; auto none  }
 REMARKS segment 372 { first ; last ; auto none  }
 REMARKS segment 373 { first ; last ; auto none  }
 REMARKS segment 374 { first ; last ; auto none  }
 REMARKS segment 375 { first ; last ; auto none  }
 REMARKS segment 376 { first ; last ; auto none  }
 REMARKS segment 377 { first ; last ; auto none  }
 REMARKS segment 378 { first ; last ; auto none  }
 REMARKS segment 379 { first ; last ; auto none  }
 REMARKS segment 380 { first ; last ; auto none  }
 REMARKS segment 381 { first ; last ; auto none  }
 REMARKS segment 382 { first ; last ; auto none  }
 REMARKS segment 383 { first ; last ; auto none  }
 REMARKS segment 384 { first ; last ; auto none  }
 REMARKS segment 385 { first ; last ; auto none  }
 REMARKS segment 386 { first ; last ; auto none  }
 REMARKS segment 387 { first ; last ; auto none  }
 REMARKS segment 388 { first ; last ; auto none  }
 REMARKS segment 389 { first ; last ; auto none  }
 REMARKS segment 390 { first ; last ; auto none  }
 REMARKS segment 391 { first ; last ; auto none  }
 REMARKS segment 392 { first ; last ; auto none  }
 REMARKS segment 393 { first ; last ; auto none  }
 REMARKS segment 394 { first ; last ; auto none  }
 REMARKS segment 395 { first ; last ; auto none  }
 REMARKS segment 396 { first ; last ; auto none  }
 REMARKS segment 397 { first ; last ; auto none  }
 REMARKS segment 398 { first ; last ; auto none  }
 REMARKS segment 399 { first ; last ; auto none  }
 REMARKS segment 400 { first ; last ; auto none  }
 REMARKS segment 401 { first ; last ; auto none  }
 REMARKS segment 402 { first ; last ; auto none  }
 REMARKS segment 403 { first ; last ; auto none  }
 REMARKS segment 404 { first ; last ; auto none  }
 REMARKS segment 405 { first ; last ; auto none  }
 REMARKS segment 406 { first ; last ; auto none  }
 REMARKS segment 407 { first ; last ; auto none  }
 REMARKS segment 408 { first ; last ; auto none  }
 REMARKS segment 409 { first ; last ; auto none  }
 REMARKS segment 410 { first ; last ; auto none  }
 REMARKS segment 411 { first ; last ; auto none  }
 REMARKS segment 412 { first ; last ; auto none  }
 REMARKS segment 413 { first ; last ; auto none  }
 REMARKS segment 414 { first ; last ; auto none  }
 REMARKS segment 415 { first ; last ; auto none  }
 REMARKS segment 416 { first ; last ; auto none  }
 REMARKS segment 417 { first ; last ; auto none  }
 REMARKS segment 418 { first ; last ; auto none  }
 REMARKS segment 419 { first ; last ; auto none  }
 REMARKS segment 420 { first ; last ; auto none  }
 REMARKS segment 421 { first ; last ; auto none  }
 REMARKS segment 422 { first ; last ; auto none  }
 REMARKS segment 423 { first ; last ; auto none  }
 REMARKS segment 424 { first ; last ; auto none  }
 REMARKS segment 425 { first ; last ; auto none  }
 REMARKS segment 426 { first ; last ; auto none  }
 REMARKS segment 427 { first ; last ; auto none  }
 REMARKS segment 428 { first ; last ; auto none  }
 REMARKS segment 429 { first ; last ; auto none  }
 REMARKS segment 430 { first ; last ; auto none  }
 REMARKS segment 431 { first ; last ; auto none  }
 REMARKS segment 432 { first ; last ; auto none  }
 REMARKS segment 433 { first ; last ; auto none  }
 REMARKS segment 434 { first ; last ; auto none  }
 REMARKS segment 435 { first ; last ; auto none  }
 REMARKS segment 436 { first ; last ; auto none  }
 REMARKS segment 437 { first ; last ; auto none  }
 REMARKS segment 438 { first ; last ; auto none  }
 REMARKS segment 439 { first ; last ; auto none  }
 REMARKS segment 440 { first ; last ; auto none  }
 REMARKS segment 441 { first ; last ; auto none  }
 REMARKS segment 442 { first ; last ; auto none  }
 REMARKS segment 443 { first ; last ; auto none  }
 REMARKS segment 444 { first ; last ; auto none  }
 REMARKS segment 445 { first ; last ; auto none  }
 REMARKS segment 446 { first ; last ; auto none  }
 REMARKS segment 447 { first ; last ; auto none  }
 REMARKS segment 448 { first ; last ; auto none  }
 REMARKS segment 449 { first ; last ; auto none  }
 REMARKS segment 450 { first ; last ; auto none  }
 REMARKS segment 451 { first ; last ; auto none  }
 REMARKS segment 452 { first ; last ; auto none  }
 REMARKS segment 453 { first ; last ; auto none  }
 REMARKS segment 454 { first ; last ; auto none  }
 REMARKS segment 455 { first ; last ; auto none  }
 REMARKS segment 456 { first ; last ; auto none  }
 REMARKS segment 457 { first ; last ; auto none  }
 REMARKS segment 458 { first ; last ; auto none  }
 REMARKS segment 459 { first ; last ; auto none  }
 REMARKS segment 460 { first ; last ; auto none  }
 REMARKS segment 461 { first ; last ; auto none  }
 REMARKS segment 462 { first ; last ; auto none  }
 REMARKS segment 463 { first ; last ; auto none  }
 REMARKS segment 464 { first ; last ; auto none  }
 REMARKS segment 465 { first ; last ; auto none  }
 REMARKS segment 466 { first ; last ; auto none  }
 REMARKS segment 467 { first ; last ; auto none  }
 REMARKS segment 468 { first ; last ; auto none  }
 REMARKS segment 469 { first ; last ; auto none  }
 REMARKS segment 470 { first ; last ; auto none  }
 REMARKS segment 471 { first ; last ; auto none  }
 REMARKS segment 472 { first ; last ; auto none  }
 REMARKS segment 473 { first ; last ; auto none  }
 REMARKS segment 474 { first ; last ; auto none  }
 REMARKS segment 475 { first ; last ; auto none  }
 REMARKS segment 476 { first ; last ; auto none  }
 REMARKS segment 477 { first ; last ; auto none  }
 REMARKS segment 478 { first ; last ; auto none  }
 REMARKS segment 479 { first ; last ; auto none  }
 REMARKS segment 000 { first ; last ; auto none  }
 REMARKS segment 001 { first ; last ; auto none  }
 REMARKS segment 002 { first ; last ; auto none  }
 REMARKS segment 003 { first ; last ; auto none  }
 REMARKS segment 004 { first ; last ; auto none  }
 REMARKS segment 005 { first ; last ; auto none  }
 REMARKS segment 006 { first ; last ; auto none  }
 REMARKS segment 007 { first ; last ; auto none  }
 REMARKS segment 008 { first ; last ; auto none  }
 REMARKS segment 009 { first ; last ; auto none  }
 REMARKS segment 010 { first ; last ; auto none  }
 REMARKS segment 011 { first ; last ; auto none  }
 REMARKS segment 012 { first ; last ; auto none  }
 REMARKS segment 013 { first ; last ; auto none  }
 REMARKS segment 014 { first ; last ; auto none  }
 REMARKS segment 015 { first ; last ; auto none  }
 REMARKS segment 016 { first ; last ; auto none  }
 REMARKS segment 017 { first ; last ; auto none  }
 REMARKS segment 018 { first ; last ; auto none  }
 REMARKS segment 019 { first ; last ; auto none  }
 REMARKS segment 020 { first ; last ; auto none  }
 REMARKS segment 021 { first ; last ; auto none  }
 REMARKS segment 022 { first ; last ; auto none  }
 REMARKS segment 023 { first ; last ; auto none  }
 REMARKS segment 024 { first ; last ; auto none  }
 REMARKS segment 025 { first ; last ; auto none  }
 REMARKS segment 026 { first ; last ; auto none  }
 REMARKS segment 027 { first ; last ; auto none  }
 REMARKS segment 028 { first ; last ; auto none  }
 REMARKS segment 029 { first ; last ; auto none  }
 REMARKS segment 030 { first ; last ; auto none  }
 REMARKS segment 031 { first ; last ; auto none  }
 REMARKS segment 032 { first ; last ; auto none  }
 REMARKS segment 033 { first ; last ; auto none  }
 REMARKS segment 034 { first ; last ; auto none  }
 REMARKS segment 035 { first ; last ; auto none  }
 REMARKS segment 036 { first ; last ; auto none  }
 REMARKS segment 037 { first ; last ; auto none  }
 REMARKS segment 038 { first ; last ; auto none  }
 REMARKS segment 039 { first ; last ; auto none  }
 REMARKS segment 040 { first ; last ; auto none  }
 REMARKS segment 041 { first ; last ; auto none  }
 REMARKS segment 042 { first ; last ; auto none  }
 REMARKS segment 043 { first ; last ; auto none  }
 REMARKS segment 044 { first ; last ; auto none  }
 REMARKS segment 045 { first ; last ; auto none  }
 REMARKS segment 046 { first ; last ; auto none  }
 REMARKS segment 047 { first ; last ; auto none  }
 REMARKS segment 048 { first ; last ; auto none  }
 REMARKS segment 049 { first ; last ; auto none  }
 REMARKS segment 050 { first ; last ; auto none  }
 REMARKS segment 051 { first ; last ; auto none  }
 REMARKS segment 052 { first ; last ; auto none  }
 REMARKS segment 053 { first ; last ; auto none  }
 REMARKS segment 054 { first ; last ; auto none  }
 REMARKS segment 055 { first ; last ; auto none  }
 REMARKS segment 056 { first ; last ; auto none  }
 REMARKS segment 057 { first ; last ; auto none  }
 REMARKS segment 058 { first ; last ; auto none  }
 REMARKS segment 059 { first ; last ; auto none  }
 REMARKS segment 060 { first ; last ; auto none  }
 REMARKS segment 061 { first ; last ; auto none  }
 REMARKS segment 062 { first ; last ; auto none  }
 REMARKS segment 063 { first ; last ; auto none  }
 REMARKS segment 064 { first ; last ; auto none  }
 REMARKS segment 065 { first ; last ; auto none  }
 REMARKS segment 066 { first ; last ; auto none  }
 REMARKS segment 067 { first ; last ; auto none  }
 REMARKS segment 068 { first ; last ; auto none  }
 REMARKS segment 069 { first ; last ; auto none  }
 REMARKS segment 070 { first ; last ; auto none  }
 REMARKS segment 071 { first ; last ; auto none  }
 REMARKS segment 072 { first ; last ; auto none  }
 REMARKS segment 073 { first ; last ; auto none  }
 REMARKS segment 074 { first ; last ; auto none  }
 REMARKS segment 075 { first ; last ; auto none  }
 REMARKS segment 076 { first ; last ; auto none  }
 REMARKS segment 077 { first ; last ; auto none  }
 REMARKS segment 078 { first ; last ; auto none  }
 REMARKS segment 079 { first ; last ; auto none  }
 REMARKS segment 080 { first ; last ; auto none  }
 REMARKS segment 081 { first ; last ; auto none  }
 REMARKS segment 082 { first ; last ; auto none  }
 REMARKS segment 083 { first ; last ; auto none  }
 REMARKS segment 084 { first ; last ; auto none  }
 REMARKS segment 085 { first ; last ; auto none  }
 REMARKS segment 086 { first ; last ; auto none  }
 REMARKS segment 087 { first ; last ; auto none  }
 REMARKS segment 088 { first ; last ; auto none  }
 REMARKS segment 089 { first ; last ; auto none  }
 REMARKS segment 090 { first ; last ; auto none  }
 REMARKS segment 091 { first ; last ; auto none  }
 REMARKS segment 092 { first ; last ; auto none  }
 REMARKS segment 093 { first ; last ; auto none  }
 REMARKS segment 094 { first ; last ; auto none  }
 REMARKS segment 095 { first ; last ; auto none  }
 REMARKS segment 096 { first ; last ; auto none  }
 REMARKS segment 097 { first ; last ; auto none  }
 REMARKS segment 098 { first ; last ; auto none  }
 REMARKS segment 099 { first ; last ; auto none  }
 REMARKS segment 100 { first ; last ; auto none  }
 REMARKS segment 101 { first ; last ; auto none  }
 REMARKS segment 102 { first ; last ; auto none  }
 REMARKS segment 103 { first ; last ; auto none  }
 REMARKS segment 104 { first ; last ; auto none  }
 REMARKS segment 105 { first ; last ; auto none  }
 REMARKS segment 106 { first ; last ; auto none  }
 REMARKS segment 107 { first ; last ; auto none  }
 REMARKS segment 108 { first ; last ; auto none  }
 REMARKS segment 109 { first ; last ; auto none  }
 REMARKS segment 110 { first ; last ; auto none  }
 REMARKS segment 111 { first ; last ; auto none  }
 REMARKS segment 112 { first ; last ; auto none  }
 REMARKS segment 113 { first ; last ; auto none  }
 REMARKS segment 114 { first ; last ; auto none  }
 REMARKS segment 115 { first ; last ; auto none  }
 REMARKS segment 116 { first ; last ; auto none  }
 REMARKS segment 117 { first ; last ; auto none  }
 REMARKS segment 118 { first ; last ; auto none  }
 REMARKS segment 119 { first ; last ; auto none  }
 REMARKS segment 120 { first ; last ; auto none  }
 REMARKS segment 121 { first ; last ; auto none  }
 REMARKS segment 122 { first ; last ; auto none  }
 REMARKS segment 123 { first ; last ; auto none  }
 REMARKS segment 124 { first ; last ; auto none  }
 REMARKS segment 125 { first ; last ; auto none  }
 REMARKS segment 126 { first ; last ; auto none  }
 REMARKS segment 127 { first ; last ; auto none  }
 REMARKS segment 128 { first ; last ; auto none  }
 REMARKS segment 129 { first ; last ; auto none  }
 REMARKS segment 130 { first ; last ; auto none  }
 REMARKS segment 131 { first ; last ; auto none  }
 REMARKS segment 132 { first ; last ; auto none  }
 REMARKS segment 133 { first ; last ; auto none  }
 REMARKS segment 134 { first ; last ; auto none  }
 REMARKS segment 135 { first ; last ; auto none  }
 REMARKS segment 136 { first ; last ; auto none  }
 REMARKS segment 137 { first ; last ; auto none  }
 REMARKS segment 138 { first ; last ; auto none  }
 REMARKS segment 139 { first ; last ; auto none  }
 REMARKS segment 140 { first ; last ; auto none  }
 REMARKS segment 141 { first ; last ; auto none  }
 REMARKS segment 142 { first ; last ; auto none  }
 REMARKS segment 143 { first ; last ; auto none  }
 REMARKS segment 144 { first ; last ; auto none  }
 REMARKS segment 145 { first ; last ; auto none  }
 REMARKS segment 146 { first ; last ; auto none  }
 REMARKS segment 147 { first ; last ; auto none  }
 REMARKS segment 148 { first ; last ; auto none  }
 REMARKS segment 149 { first ; last ; auto none  }
 REMARKS segment 150 { first ; last ; auto none  }
 REMARKS segment 151 { first ; last ; auto none  }
 REMARKS segment 152 { first ; last ; auto none  }
 REMARKS segment 153 { first ; last ; auto none  }
 REMARKS segment 154 { first ; last ; auto none  }
 REMARKS segment 155 { first ; last ; auto none  }
 REMARKS segment 156 { first ; last ; auto none  }
 REMARKS segment 157 { first ; last ; auto none  }
 REMARKS segment 158 { first ; last ; auto none  }
 REMARKS segment 159 { first ; last ; auto none  }
 REMARKS segment O1 { first none; last none; auto angles dihedrals }
 REMARKS segment WT1 { first NONE; last NONE; auto none  }

    1226 !NATOM
       1 160  0    DIA  AL   YA     0.000000       26.9815           0
       2 161  0    DIA  AL   YA     0.000000       26.9815           0
       3 162  0    DIA  AL   YA     0.000000       26.9815           0
       4 163  0    DIA  AL   YA     0.000000       26.9815           0
       5 164  0    DIA  AL   YA     0.000000       26.9815           0
       6 165  0    DIA  AL   YA     0.000000       26.9815           0
       7 166  0    DIA  AL   YA     0.000000       26.9815           0
       8 167  0    DIA  AL   YA     0.000000       26.9815           0
       9 168  0    DIA  AL   YA     0.000000       26.9815           0
      10 169  0    DIA  AL   YA     0.000000       26.9815           0
      11 170  0    DIA  AL   YA     0.000000       26.9815           0
      12 171  0    DIA  AL   YA     0.000000       26.9815           0
      13 172  0    DIA  AL   YA     0.000000       26.9815           0
      14 173  0    DIA  AL   YA     0.000000       26.9815           0
      15 174  0    DIA  AL   YA     0.000000       26.9815           0
      16 175  0    DIA  AL   YA     0.000000       26.9815           0
      17 176  0    DIA  AL   YA     0.000000       26.9815           0
      18 177  0    DIA  AL   YA     0.000000       26.9815           0
      19 178  0    DIA  AL   YA     0.000000       26.9815           0
      20 179  0    DIA  AL   YA     0.000000       26.9815           0
      21 180  0    DIA  AL   YA     0.000000       26.9815           0
      22 181  0    DIA  AL   YA     0.000000       26.9815           0
      23 182  0    DIA  AL   YA     0.000000       26.9815           0
      24 183  0    DIA  AL   YA     0.000000       26.9815           0
      25 184  0    DIA  AL   YA     0.000000       26.9815           0
      26 185  0    DIA  AL   YA     0.000000       26.9815           0
      27 186  0    DIA  AL   YA     0.000000       26.9815           0
      28 187  0    DIA  AL   YA     0.000000       26.9815           0
      29 188  0    DIA  AL   YA     0.000000       26.9815           0
      30 189  0    DIA  AL   YA     0.000000       26.9815           0
      31 190  0    DIA  AL   YA     0.000000       26.9815           0
      32 191  0    DIA  AL   YA     0.000000       26.9815           0
      33 192  0    DIA  AL   YA     0.000000       26.9815           0
      34 193  0    DIA  AL   YA     0.000000       26.9815           0
      35 194  0    DIA  AL   YA     0.000000       26.9815           0
      36 195  0    DIA  AL   YA     0.000000       26.9815           0
      37 196  0    DIA  AL   YA     0.000000       26.9815           0
      38 197  0    DIA  AL   YA     0.000000       26.9815           0
      39 198  0    DIA  AL   YA     0.000000       26.9815           0
      40 199  0    DIA  AL   YA     0.000000       26.9815           0
      41 200  0    DIA  AL   YA     0.000000       26.9815           0
      42 201  0    DIA  AL   YA     0.000000       26.9815           0
      43 202  0    DIA  AL   YA     0.000000       26.9815           0
      44 203  0    DIA  AL   YA     0.000000       26.9815           0
      45 204  0    DIA  AL   YA     0.000000       26.9815           0
      46 205  0    DIA  AL   YA     0.000000       26.9815           0
      47 206  0    DIA  AL   YA     0.000000       26.9815           0
      48 207  0    DIA  AL   YA     0.000000       26.9815           0
      49 208  0    DIA  AL   YA     0.000000       26.9815           0
      50 209  0    DIA  AL   YA     0.000000       26.9815           0
      51 210  0    DIA  AL   YA     0.000000       26.9815           0
      52 211  0    DIA  AL   YA     0.000000       26.9815           0
      53 212  0    DIA  AL   YA     0.000000       26.9815           0
      54 213  0    DIA  AL   YA     0.000000       26.9815           0
      55 214  0    DIA  AL   YA     0.000000       26.9815           0
      56 215  0    DIA  AL   YA     0.000000       26.9815           0
      57 216  0    DIA  AL   YA     0.000000       26.9815           0
      58 217  0    DIA  AL   YA     0.000000       26.9815           0
      59 218  0    DIA  AL   YA     0.000000       26.9815           0
      60 219  0    DIA  AL   YA     0.000000       26.9815           0
      61 220  0    DIA  AL   YA     0.000000       26.9815           0
      62 221  0    DIA  AL   YA     0.000000       26.9815           0
      63 222  0    DIA  AL   YA     0.000000       26.9815           0
      64 223  0    DIA  AL   YA     0.000000       26.9815           0
      65 224  0    DIA  AL   YA     0.000000       26.9815           0
      66 225  0    DIA  AL   YA     0.000000       26.9815           0
      67 226  0    DIA  AL   YA     0.000000       26.9815           0
      68 227  0    DIA  AL   YA     0.000000       26.9815           0
      69 228  0    DIA  AL   YA     0.000000       26.9815           0
      70 229  0    DIA  AL   YA     0.000000       26.9815           0
      71 230  0    DIA  AL   YA     0.000000       26.9815           0
      72 231  0    DIA  AL   YA     0.000000       26.9815           0
      73 232  0    DIA  AL   YA     0.000000       26.9815           0
      74 233  0    DIA  AL   YA     0.000000       26.9815           0
      75 234  0    DIA  AL   YA     0.000000       26.9815           0
      76 235  0    DIA  AL   YA     0.000000       26.9815           0
      77 236  0    DIA  AL   YA     0.000000       26.9815           0
      78 237  0    DIA  AL   YA     0.000000       26.9815           0
      79 238  0    DIA  AL   YA     0.000000       26.9815           0
      80 239  0    DIA  AL   YA     0.000000       26.9815           0
      81 240  0    DIA  AL   YA     0.000000       26.9815           0
      82 241  0    DIA  AL   YA     0.000000       26.9815           0
      83 242  0    DIA  AL   YA     0.000000       26.9815           0
      84 243  0    DIA  AL   YA     0.000000       26.9815           0
      85 244  0    DIA  AL   YA     0.000000       26.9815           0
      86 245  0    DIA  AL   YA     0.000000       26.9815           0
      87 246  0    DIA  AL   YA     0.000000       26.9815           0
      88 247  0    DIA  AL   YA     0.000000       26.9815           0
      89 248  0    DIA  AL   YA     0.000000       26.9815           0
      90 249  0    DIA  AL   YA     0.000000       26.9815           0
      91 250  0    DIA  AL   YA     0.000000       26.9815           0
      92 251  0    DIA  AL   YA     0.000000       26.9815           0
      93 252  0    DIA  AL   YA     0.000000       26.9815           0
      94 253  0    DIA  AL   YA     0.000000       26.9815           0
      95 254  0    DIA  AL   YA     0.000000       26.9815           0
      96 255  0    DIA  AL   YA     0.000000       26.9815           0
      97 256  0    DIA  AL   YA     0.000000       26.9815           0
      98 257  0    DIA  AL   YA     0.000000       26.9815           0
      99 258  0    DIA  AL   YA     0.000000       26.9815           0
     100 259  0    DIA  AL   YA     0.000000       26.9815           0
     101 260  0    DIA  AL   YA     0.000000       26.9815           0
     102 261  0    DIA  AL   YA     0.000000       26.9815           0
     103 262  0    DIA  AL   YA     0.000000       26.9815           0
     104 263  0    DIA  AL   YA     0.000000       26.9815           0
     105 264  0    DIA  AL   YA     0.000000       26.9815           0
     106 265  0    DIA  AL   YA     0.000000       26.9815           0
     107 266  0    DIA  AL   YA     0.000000       26.9815           0
     108 267  0    DIA  AL   YA     0.000000       26.9815           0
     109 268  0    DIA  AL   YA     0.000000       26.9815           0
     110 269  0    DIA  AL   YA     0.000000       26.9815           0
     111 270  0    DIA  AL   YA     0.000000       26.9815           0
     112 271  0    DIA  AL   YA     0.000000       26.9815           0
     113 272  0    DIA  AL   YA     0.000000       26.9815           0
     114 273  0    DIA  AL   YA     0.000000       26.9815           0
     115 274  0    DIA  AL   YA     0.000000       26.9815           0
     116 275  0    DIA  AL   YA     0.000000       26.9815           0
     117 276  0    DIA  AL   YA     0.000000       26.9815           0
     118 277  0    DIA  AL   YA     0.000000       26.9815           0
     119 278  0    DIA  AL   YA     0.000000       26.9815           0
     120 279  0    DIA  AL   YA     0.000000       26.9815           0
     121 280  0    DIA  AL   YA     0.000000       26.9815           0
     122 281  0    DIA  AL   YA     0.000000       26.9815           0
     123 282  0    DIA  AL   YA     0.000000       26.9815           0
     124 283  0    DIA  AL   YA     0.000000       26.9815           0
     125 284  0    DIA  AL   YA     0.000000       26.9815           0
     126 285  0    DIA  AL   YA     0.000000       26.9815           0
     127 286  0    DIA  AL   YA     0.000000       26.9815           0
     128 287  0    DIA  AL   YA     0.000000       26.9815           0
     129 288  0    DIA  AL   YA     0.000000       26.9815           0
     130 289  0    DIA  AL   YA     0.000000       26.9815           0
     131 290  0    DIA  AL   YA     0.000000       26.9815           0
     132 291  0    DIA  AL   YA     0.000000       26.9815           0
     133 292  0    DIA  AL   YA     0.000000       26.9815           0
     134 293  0    DIA  AL   YA     0.000000       26.9815           0
     135 294  0    DIA  AL   YA     0.000000       26.9815           0
     136 295  0    DIA  AL   YA     0.000000       26.9815           0
     137 296  0    DIA  AL   YA     0.000000       26.9815           0
     138 297  0    DIA  AL   YA     0.000000       26.9815           0
     139 298  0    DIA  AL   YA     0.000000       26.9815           0
     140 299  0    DIA  AL   YA     0.000000       26.9815           0
     141 300  0    DIA  AL   YA     0.000000       26.9815           0
     142 301  0    DIA  AL   YA     0.000000       26.9815           0
     143 302  0    DIA  AL   YA     0.000000       26.9815           0
     144 303  0    DIA  AL   YA     0.000000       26.9815           0
     145 304  0    DIA  AL   YA     0.000000       26.9815           0
     146 305  0    DIA  AL   YA     0.000000       26.9815           0
     147 306  0    DIA  AL   YA     0.000000       26.9815           0
     148 307  0    DIA  AL   YA     0.000000       26.9815           0
     149 308  0    DIA  AL   YA     0.000000       26.9815           0
     150 309  0    DIA  AL   YA     0.000000       26.9815           0
     151 310  0    DIA  AL   YA     0.000000       26.9815           0
     152 311  0    DIA  AL   YA     0.000000       26.9815           0
     153 312  0    DIA  AL   YA     0.000000       26.9815           0
     154 313  0    DIA  AL   YA     0.000000       26.9815           0
     155 314  0    DIA  AL   YA     0.000000       26.9815           0
     156 315  0    DIA  AL   YA     0.000000       26.9815           0
     157 316  0    DIA  AL   YA     0.000000       26.9815           0
     158 317  0    DIA  AL   YA     0.000000       26.9815           0
     159 318  0    DIA  AL   YA     0.000000       26.9815           0
     160 319  0    DIA  AL   YA     0.000000       26.9815           0
     161 320  0    DIA  O    YO     0.000000       15.9994           0
     162 321  0    DIA  O    YO     0.000000       15.9994           0
     163 322  0    DIA  O    YO     0.000000       15.9994           0
     164 323  0    DIA  O    YO     0.000000       15.9994           0
     165 324  0    DIA  O    YO     0.000000       15.9994           0
     166 325  0    DIA  O    YO     0.000000       15.9994           0
     167 326  0    DIA  O    YO     0.000000       15.9994           0
     168 327  0    DIA  O    YO     0.000000       15.9994           0
     169 328  0    DIA  O    YO     0.000000       15.9994           0
     170 329  0    DIA  O    YO     0.000000       15.9994           0
     171 330  0    DIA  O    YO     0.000000       15.9994           0
     172 331  0    DIA  O    YO     0.000000       15.9994           0
     173 332  0    DIA  O    YO     0.000000       15.9994           0
     174 333  0    DIA  O    YO     0.000000       15.9994           0
     175 334  0    DIA  O    YO     0.000000       15.9994           0
     176 335  0    DIA  O    YO     0.000000       15.9994           0
     177 336  0    DIA  O    YO     0.000000       15.9994           0
     178 337  0    DIA  O    YO     0.000000       15.9994           0
     179 338  0    DIA  O    YO     0.000000       15.9994           0
     180 339  0    DIA  O    YO     0.000000       15.9994           0
     181 340  0    DIA  O    YO     0.000000       15.9994           0
     182 341  0    DIA  O    YO     0.000000       15.9994           0
     183 342  0    DIA  O    YO     0.000000       15.9994           0
     184 343  0    DIA  O    YO     0.000000       15.9994           0
     185 344  0    DIA  O    YO     0.000000       15.9994           0
     186 345  0    DIA  O    YO     0.000000       15.9994           0
     187 346  0    DIA  O    YO     0.000000       15.9994           0
     188 347  0    DIA  O    YO     0.000000       15.9994           0
     189 348  0    DIA  O    YO     0.000000       15.9994           0
     190 349  0    DIA  O    YO     0.000000       15.9994           0
     191 350  0    DIA  O    YO     0.000000       15.9994           0
     192 351  0    DIA  O    YO     0.000000       15.9994           0
     193 352  0    DIA  O    YO     0.000000       15.9994           0
     194 353  0    DIA  O    YO     0.000000       15.9994           0
     195 354  0    DIA  O    YO     0.000000       15.9994           0
     196 355  0    DIA  O    YO     0.000000       15.9994           0
     197 356  0    DIA  O    YO     0.000000       15.9994           0
     198 357  0    DIA  O    YO     0.000000       15.9994           0
     199 358  0    DIA  O    YO     0.000000       15.9994           0
     200 359  0    DIA  O    YO     0.000000       15.9994           0
     201 360  0    DIA  O    YO     0.000000       15.9994           0
     202 361  0    DIA  O    YO     0.000000       15.9994           0
     203 362  0    DIA  O    YO     0.000000       15.9994           0
     204 363  0    DIA  O    YO     0.000000       15.9994           0
     205 364  0    DIA  O    YO     0.000000       15.9994           0
     206 365  0    DIA  O    YO     0.000000       15.9994           0
     207 366  0    DIA  O    YO     0.000000       15.9994           0
     208 367  0    DIA  O    YO     0.000000       15.9994           0
     209 368  0    DIA  O    YO     0.000000       15.9994           0
     210 369  0    DIA  O    YO     0.000000       15.9994           0
     211 370  0    DIA  O    YO     0.000000       15.9994           0
     212 371  0    DIA  O    YO     0.000000       15.9994           0
     213 372  0    DIA  O    YO     0.000000       15.9994           0
     214 373  0    DIA  O    YO     0.000000       15.9994           0
     215 374  0    DIA  O    YO     0.000000       15.9994           0
     216 375  0    DIA  O    YO     0.000000       15.9994           0
     217 376  0    DIA  O    YO     0.000000       15.9994           0
     218 377  0    DIA  O    YO     0.000000       15.9994           0
     219 378  0    DIA  O    YO     0.000000       15.9994           0
     220 379  0    DIA  O    YO     0.000000       15.9994           0
     221 380  0    DIA  O    YO     0.000000       15.9994           0
     222 381  0    DIA  O    YO     0.000000       15.9994           0
     223 382  0    DIA  O    YO     0.000000       15.9994           0
     224 383  0    DIA  O    YO     0.000000       15.9994           0
     225 384  0    DIA  O    YO     0.000000       15.9994           0
     226 385  0    DIA  O    YO     0.000000       15.9994           0
     227 386  0    DIA  O    YO     0.000000       15.9994           0
     228 387  0    DIA  O    YO     0.000000       15.9994           0
     229 388  0    DIA  O    YO     0.000000       15.9994           0
     230 389  0    DIA  O    YO     0.000000       15.9994           0
     231 390  0    DIA  O    YO     0.000000       15.9994           0
     232 391  0    DIA  O    YO     0.000000       15.9994           0
     233 392  0    DIA  O    YO     0.000000       15.9994           0
     234 393  0    DIA  O    YO     0.000000       15.9994           0
     235 394  0    DIA  O    YO     0.000000       15.9994           0
     236 395  0    DIA  O    YO     0.000000       15.9994           0
     237 396  0    DIA  O    YO     0.000000       15.9994           0
     238 397  0    DIA  O    YO     0.000000       15.9994           0
     239 398  0    DIA  O    YO     0.000000       15.9994           0
     240 399  0    DIA  O    YO     0.000000       15.9994           0
     241 400  0    DIA  O    YO     0.000000       15.9994           0
     242 401  0    DIA  O    YO     0.000000       15.9994           0
     243 402  0    DIA  O    YO     0.000000       15.9994           0
     244 403  0    DIA  O    YO     0.000000       15.9994           0
     245 404  0    DIA  O    YO     0.000000       15.9994           0
     246 405  0    DIA  O    YO     0.000000       15.9994           0
     247 406  0    DIA  O    YO     0.000000       15.9994           0
     248 407  0    DIA  O    YO     0.000000       15.9994           0
     249 408  0    DIA  O    YO     0.000000       15.9994           0
     250 409  0    DIA  O    YO     0.000000       15.9994           0
     251 410  0    DIA  O    YO     0.000000       15.9994           0
     252 411  0    DIA  O    YO     0.000000       15.9994           0
     253 412  0    DIA  O    YO     0.000000       15.9994           0
     254 413  0    DIA  O    YO     0.000000       15.9994           0
     255 414  0    DIA  O    YO     0.000000       15.9994           0
     256 415  0    DIA  O    YO     0.000000       15.9994           0
     257 416  0    DIA  O    YO     0.000000       15.9994           0
     258 417  0    DIA  O    YO     0.000000       15.9994           0
     259 418  0    DIA  O    YO     0.000000       15.9994           0
     260 419  0    DIA  O    YO     0.000000       15.9994           0
     261 420  0    DIA  O    YO     0.000000       15.9994           0
     262 421  0    DIA  O    YO     0.000000       15.9994           0
     263 422  0    DIA  O    YO     0.000000       15.9994           0
     264 423  0    DIA  O    YO     0.000000       15.9994           0
     265 424  0    DIA  O    YO     0.000000       15.9994           0
     266 425  0    DIA  O    YO     0.000000       15.9994           0
     267 426  0    DIA  O    YO     0.000000       15.9994           0
     268 427  0    DIA  O    YO     0.000000       15.9994           0
     269 428  0    DIA  O    YO     0.000000       15.9994           0
     270 429  0    DIA  O    YO     0.000000       15.9994           0
     271 430  0    DIA  O    YO     0.000000       15.9994           0
     272 431  0    DIA  O    YO     0.000000       15.9994           0
     273 432  0    DIA  O    YO     0.000000       15.9994           0
     274 433  0    DIA  O    YO     0.000000       15.9994           0
     275 434  0    DIA  O    YO     0.000000       15.9994           0
     276 435  0    DIA  O    YO     0.000000       15.9994           0
     277 436  0    DIA  O    YO     0.000000       15.9994           0
     278 437  0    DIA  O    YO     0.000000       15.9994           0
     279 438  0    DIA  O    YO     0.000000       15.9994           0
     280 439  0    DIA  O    YO     0.000000       15.9994           0
     281 440  0    DIA  O    YO     0.000000       15.9994           0
     282 441  0    DIA  O    YO     0.000000       15.9994           0
     283 442  0    DIA  O    YO     0.000000       15.9994           0
     284 443  0    DIA  O    YO     0.000000       15.9994           0
     285 444  0    DIA  O    YO     0.000000       15.9994           0
     286 445  0    DIA  O    YO     0.000000       15.9994           0
     287 446  0    DIA  O    YO     0.000000       15.9994           0
     288 447  0    DIA  O    YO     0.000000       15.9994           0
     289 448  0    DIA  O    YO     0.000000       15.9994           0
     290 449  0    DIA  O    YO     0.000000       15.9994           0
     291 450  0    DIA  O    YO     0.000000       15.9994           0
     292 451  0    DIA  O    YO     0.000000       15.9994           0
     293 452  0    DIA  O    YO     0.000000       15.9994           0
     294 453  0    DIA  O    YO     0.000000       15.9994           0
     295 454  0    DIA  O    YO     0.000000       15.9994           0
     296 455  0    DIA  O    YO     0.000000       15.9994           0
     297 456  0    DIA  O    YO     0.000000       15.9994           0
     298 457  0    DIA  O    YO     0.000000       15.9994           0
     299 458  0    DIA  O    YO     0.000000       15.9994           0
     300 459  0    DIA  O    YO     0.000000       15.9994           0
     301 460  0    DIA  O    YO     0.000000       15.9994           0
     302 461  0    DIA  O    YO     0.000000       15.9994           0
     303 462  0    DIA  O    YO     0.000000       15.9994           0
     304 463  0    DIA  O    YO     0.000000       15.9994           0
     305 464  0    DIA  O    YO     0.000000       15.9994           0
     306 465  0    DIA  O    YO     0.000000       15.9994           0
     307 466  0    DIA  O    YO     0.000000       15.9994           0
     308 467  0    DIA  O    YO     0.000000       15.9994           0
     309 468  0    DIA  O    YO     0.000000       15.9994           0
     310 469  0    DIA  O    YO     0.000000       15.9994           0
     311 470  0    DIA  O    YO     0.000000       15.9994           0
     312 471  0    DIA  O    YO     0.000000       15.9994           0
     313 472  0    DIA  O    YO     0.000000       15.9994           0
     314 473  0    DIA  O    YO     0.000000       15.9994           0
     315 474  0    DIA  O    YO     0.000000       15.9994           0
     316 475  0    DIA  O    YO     0.000000       15.9994           0
     317 476  0    DIA  O    YO     0.000000       15.9994           0
     318 477  0    DIA  O    YO     0.000000       15.9994           0
     319 478  0    DIA  O    YO     0.000000       15.9994           0
     320 479  0    DIA  O    YO     0.000000       15.9994           0
     321 000  0    DIA  S    YS     0.000000       15.9994           0
     322 000  0    DIA  H    YH     0.000000        1.0079           0
     323 001  0    DIA  S    YS     0.000000       15.9994           0
     324 001  0    DIA  H    YH     0.000000        1.0079           0
     325 002  0    DIA  S    YS     0.000000       15.9994           0
     326 002  0    DIA  H    YH     0.000000        1.0079           0
     327 003  0    DIA  S    YS     0.000000       15.9994           0
     328 003  0    DIA  H    YH     0.000000        1.0079           0
     329 004  0    DIA  S    YS     0.000000       15.9994           0
     330 004  0    DIA  H    YH     0.000000        1.0079           0
     331 005  0    DIA  S    YS     0.000000       15.9994           0
     332 005  0    DIA  H    YH     0.000000        1.0079           0
     333 006  0    DIA  S    YS     0.000000       15.9994           0
     334 006  0    DIA  H    YH     0.000000        1.0079           0
     335 007  0    DIA  S    YS     0.000000       15.9994           0
     336 007  0    DIA  H    YH     0.000000        1.0079           0
     337 008  0    DIA  S    YS     0.000000       15.9994           0
     338 008  0    DIA  H    YH     0.000000        1.0079           0
     339 009  0    DIA  S    YS     0.000000       15.9994           0
     340 009  0    DIA  H    YH     0.000000        1.0079           0
     341 010  0    DIA  S    YS     0.000000       15.9994           0
     342 010  0    DIA  H    YH     0.000000        1.0079           0
     343 011  0    DIA  S    YS     0.000000       15.9994           0
     344 011  0    DIA  H    YH     0.000000        1.0079           0
     345 012  0    DIA  S    YS     0.000000       15.9994           0
     346 012  0    DIA  H    YH     0.000000        1.0079           0
     347 013  0    DIA  S    YS     0.000000       15.9994           0
     348 013  0    DIA  H    YH     0.000000        1.0079           0
     349 014  0    DIA  S    YS     0.000000       15.9994           0
     350 014  0    DIA  H    YH     0.000000        1.0079           0
     351 015  0    DIA  S    YS     0.000000       15.9994           0
     352 015  0    DIA  H    YH     0.000000        1.0079           0
     353 016  0    DIA  S    YS     0.000000       15.9994           0
     354 016  0    DIA  H    YH     0.000000        1.0079           0
     355 017  0    DIA  S    YS     0.000000       15.9994           0
     356 017  0    DIA  H    YH     0.000000        1.0079           0
     357 018  0    DIA  S    YS     0.000000       15.9994           0
     358 018  0    DIA  H    YH     0.000000        1.0079           0
     359 019  0    DIA  S    YS     0.000000       15.9994           0
     360 019  0    DIA  H    YH     0.000000        1.0079           0
     361 020  0    DIA  S    YS     0.000000       15.9994           0
     362 020  0    DIA  H    YH     0.000000        1.0079           0
     363 021  0    DIA  S    YS     0.000000       15.9994           0
     364 021  0    DIA  H    YH     0.000000        1.0079           0
     365 022  0    DIA  S    YS     0.000000       15.9994           0
     366 022  0    DIA  H    YH     0.000000        1.0079           0
     367 023  0    DIA  S    YS     0.000000       15.9994           0
     368 023  0    DIA  H    YH     0.000000        1.0079           0
     369 024  0    DIA  S    YS     0.000000       15.9994           0
     370 024  0    DIA  H    YH     0.000000        1.0079           0
     371 025  0    DIA  S    YS     0.000000       15.9994           0
     372 025  0    DIA  H    YH     0.000000        1.0079           0
     373 026  0    DIA  S    YS     0.000000       15.9994           0
     374 026  0    DIA  H    YH     0.000000        1.0079           0
     375 027  0    DIA  S    YS     0.000000       15.9994           0
     376 027  0    DIA  H    YH     0.000000        1.0079           0
     377 028  0    DIA  S    YS     0.000000       15.9994           0
     378 028  0    DIA  H    YH     0.000000        1.0079           0
     379 029  0    DIA  S    YS     0.000000       15.9994           0
     380 029  0    DIA  H    YH     0.000000        1.0079           0
     381 030  0    DIA  S    YS     0.000000       15.9994           0
     382 030  0    DIA  H    YH     0.000000        1.0079           0
     383 031  0    DIA  S    YS     0.000000       15.9994           0
     384 031  0    DIA  H    YH     0.000000        1.0079           0
     385 032  0    DIA  S    YS     0.000000       15.9994           0
     386 032  0    DIA  H    YH     0.000000        1.0079           0
     387 033  0    DIA  S    YS     0.000000       15.9994           0
     388 033  0    DIA  H    YH     0.000000        1.0079           0
     389 034  0    DIA  S    YS     0.000000       15.9994           0
     390 034  0    DIA  H    YH     0.000000        1.0079           0
     391 035  0    DIA  S    YS     0.000000       15.9994           0
     392 035  0    DIA  H    YH     0.000000        1.0079           0
     393 036  0    DIA  S    YS     0.000000       15.9994           0
     394 036  0    DIA  H    YH     0.000000        1.0079           0
     395 037  0    DIA  S    YS     0.000000       15.9994           0
     396 037  0    DIA  H    YH     0.000000        1.0079           0
     397 038  0    DIA  S    YS     0.000000       15.9994           0
     398 038  0    DIA  H    YH     0.000000        1.0079           0
     399 039  0    DIA  S    YS     0.000000       15.9994           0
     400 039  0    DIA  H    YH     0.000000        1.0079           0
     401 040  0    DIA  S    YS     0.000000       15.9994           0
     402 040  0    DIA  H    YH     0.000000        1.0079           0
     403 041  0    DIA  S    YS     0.000000       15.9994           0
     404 041  0    DIA  H    YH     0.000000        1.0079           0
     405 042  0    DIA  S    YS     0.000000       15.9994           0
     406 042  0    DIA  H    YH     0.000000        1.0079           0
     407 043  0    DIA  S    YS     0.000000       15.9994           0
     408 043  0    DIA  H    YH     0.000000        1.0079           0
     409 044  0    DIA  S    YS     0.000000       15.9994           0
     410 044  0    DIA  H    YH     0.000000        1.0079           0
     411 045  0    DIA  S    YS     0.000000       15.9994           0
     412 045  0    DIA  H    YH     0.000000        1.0079           0
     413 046  0    DIA  S    YS     0.000000       15.9994           0
     414 046  0    DIA  H    YH     0.000000        1.0079           0
     415 047  0    DIA  S    YS     0.000000       15.9994           0
     416 047  0    DIA  H    YH     0.000000        1.0079           0
     417 048  0    DIA  S    YS     0.000000       15.9994           0
     418 048  0    DIA  H    YH     0.000000        1.0079           0
     419 049  0    DIA  S    YS     0.000000       15.9994           0
     420 049  0    DIA  H    YH     0.000000        1.0079           0
     421 050  0    DIA  S    YS     0.000000       15.9994           0
     422 050  0    DIA  H    YH     0.000000        1.0079           0
     423 051  0    DIA  S    YS     0.000000       15.9994           0
     424 051  0    DIA  H    YH     0.000000        1.0079           0
     425 052  0    DIA  S    YS     0.000000       15.9994           0
     426 052  0    DIA  H    YH     0.000000        1.0079           0
     427 053  0    DIA  S    YS     0.000000       15.9994           0
     428 053  0    DIA  H    YH     0.000000        1.0079           0
     429 054  0    DIA  S    YS     0.000000       15.9994           0
     430 054  0    DIA  H    YH     0.000000        1.0079           0
     431 055  0    DIA  S    YS     0.000000       15.9994           0
     432 055  0    DIA  H    YH     0.000000        1.0079           0
     433 056  0    DIA  S    YS     0.000000       15.9994           0
     434 056  0    DIA  H    YH     0.000000        1.0079           0
     435 057  0    DIA  S    YS     0.000000       15.9994           0
     436 057  0    DIA  H    YH     0.000000        1.0079           0
     437 058  0    DIA  S    YS     0.000000       15.9994           0
     438 058  0    DIA  H    YH     0.000000        1.0079           0
     439 059  0    DIA  S    YS     0.000000       15.9994           0
     440 059  0    DIA  H    YH     0.000000        1.0079           0
     441 060  0    DIA  S    YS     0.000000       15.9994           0
     442 060  0    DIA  H    YH     0.000000        1.0079           0
     443 061  0    DIA  S    YS     0.000000       15.9994           0
     444 061  0    DIA  H    YH     0.000000        1.0079           0
     445 062  0    DIA  S    YS     0.000000       15.9994           0
     446 062  0    DIA  H    YH     0.000000        1.0079           0
     447 063  0    DIA  S    YS     0.000000       15.9994           0
     448 063  0    DIA  H    YH     0.000000        1.0079           0
     449 064  0    DIA  S    YS     0.000000       15.9994           0
     450 064  0    DIA  H    YH     0.000000        1.0079           0
     451 065  0    DIA  S    YS     0.000000       15.9994           0
     452 065  0    DIA  H    YH     0.000000        1.0079           0
     453 066  0    DIA  S    YS     0.000000       15.9994           0
     454 066  0    DIA  H    YH     0.000000        1.0079           0
     455 067  0    DIA  S    YS     0.000000       15.9994           0
     456 067  0    DIA  H    YH     0.000000        1.0079           0
     457 068  0    DIA  S    YS     0.000000       15.9994           0
     458 068  0    DIA  H    YH     0.000000        1.0079           0
     459 069  0    DIA  S    YS     0.000000       15.9994           0
     460 069  0    DIA  H    YH     0.000000        1.0079           0
     461 070  0    DIA  S    YS     0.000000       15.9994           0
     462 070  0    DIA  H    YH     0.000000        1.0079           0
     463 071  0    DIA  S    YS     0.000000       15.9994           0
     464 071  0    DIA  H    YH     0.000000        1.0079           0
     465 072  0    DIA  S    YS     0.000000       15.9994           0
     466 072  0    DIA  H    YH     0.000000        1.0079           0
     467 073  0    DIA  S    YS     0.000000       15.9994           0
     468 073  0    DIA  H    YH     0.000000        1.0079           0
     469 074  0    DIA  S    YS     0.000000       15.9994           0
     470 074  0    DIA  H    YH     0.000000        1.0079           0
     471 075  0    DIA  S    YS     0.000000       15.9994           0
     472 075  0    DIA  H    YH     0.000000        1.0079           0
     473 076  0    DIA  S    YS     0.000000       15.9994           0
     474 076  0    DIA  H    YH     0.000000        1.0079           0
     475 077  0    DIA  S    YS     0.000000       15.9994           0
     476 077  0    DIA  H    YH     0.000000        1.0079           0
     477 078  0    DIA  S    YS     0.000000       15.9994           0
     478 078  0    DIA  H    YH     0.000000        1.0079           0
     479 079  0    DIA  S    YS     0.000000       15.9994           0
     480 079  0    DIA  H    YH     0.000000        1.0079           0
     481 080  0    DIA  S    YS     0.000000       15.9994           0
     482 080  0    DIA  H    YH     0.000000        1.0079           0
     483 081  0    DIA  S    YS     0.000000       15.9994           0
     484 081  0    DIA  H    YH     0.000000        1.0079           0
     485 082  0    DIA  S    YS     0.000000       15.9994           0
     486 082  0    DIA  H    YH     0.000000        1.0079           0
     487 083  0    DIA  S    YS     0.000000       15.9994           0
     488 083  0    DIA  H    YH     0.000000        1.0079           0
     489 084  0    DIA  S    YS     0.000000       15.9994           0
     490 084  0    DIA  H    YH     0.000000        1.0079           0
     491 085  0    DIA  S    YS     0.000000       15.9994           0
     492 085  0    DIA  H    YH     0.000000        1.0079           0
     493 086  0    DIA  S    YS     0.000000       15.9994           0
     494 086  0    DIA  H    YH     0.000000        1.0079           0
     495 087  0    DIA  S    YS     0.000000       15.9994           0
     496 087  0    DIA  H    YH     0.000000        1.0079           0
     497 088  0    DIA  S    YS     0.000000       15.9994           0
     498 088  0    DIA  H    YH     0.000000        1.0079           0
     499 089  0    DIA  S    YS     0.000000       15.9994           0
     500 089  0    DIA  H    YH     0.000000        1.0079           0
     501 090  0    DIA  S    YS     0.000000       15.9994           0
     502 090  0    DIA  H    YH     0.000000        1.0079           0
     503 091  0    DIA  S    YS     0.000000       15.9994           0
     504 091  0    DIA  H    YH     0.000000        1.0079           0
     505 092  0    DIA  S    YS     0.000000       15.9994           0
     506 092  0    DIA  H    YH     0.000000        1.0079           0
     507 093  0    DIA  S    YS     0.000000       15.9994           0
     508 093  0    DIA  H    YH     0.000000        1.0079           0
     509 094  0    DIA  S    YS     0.000000       15.9994           0
     510 094  0    DIA  H    YH     0.000000        1.0079           0
     511 095  0    DIA  S    YS     0.000000       15.9994           0
     512 095  0    DIA  H    YH     0.000000        1.0079           0
     513 096  0    DIA  S    YS     0.000000       15.9994           0
     514 096  0    DIA  H    YH     0.000000        1.0079           0
     515 097  0    DIA  S    YS     0.000000       15.9994           0
     516 097  0    DIA  H    YH     0.000000        1.0079           0
     517 098  0    DIA  S    YS     0.000000       15.9994           0
     518 098  0    DIA  H    YH     0.000000        1.0079           0
     519 099  0    DIA  S    YS     0.000000       15.9994           0
     520 099  0    DIA  H    YH     0.000000        1.0079           0
     521 100  0    DIA  S    YS     0.000000       15.9994           0
     522 100  0    DIA  H    YH     0.000000        1.0079           0
     523 101  0    DIA  S    YS     0.000000       15.9994           0
     524 101  0    DIA  H    YH     0.000000        1.0079           0
     525 102  0    DIA  S    YS     0.000000       15.9994           0
     526 102  0    DIA  H    YH     0.000000        1.0079           0
     527 103  0    DIA  S    YS     0.000000       15.9994           0
     528 103  0    DIA  H    YH     0.000000        1.0079           0
     529 104  0    DIA  S    YS     0.000000       15.9994           0
     530 104  0    DIA  H    YH     0.000000        1.0079           0
     531 105  0    DIA  S    YS     0.000000       15.9994           0
     532 105  0    DIA  H    YH     0.000000        1.0079           0
     533 106  0    DIA  S    YS     0.000000       15.9994           0
     534 106  0    DIA  H    YH     0.000000        1.0079           0
     535 107  0    DIA  S    YS     0.000000       15.9994           0
     536 107  0    DIA  H    YH     0.000000        1.0079           0
     537 108  0    DIA  S    YS     0.000000       15.9994           0
     538 108  0    DIA  H    YH     0.000000        1.0079           0
     539 109  0    DIA  S    YS     0.000000       15.9994           0
     540 109  0    DIA  H    YH     0.000000        1.0079           0
     541 110  0    DIA  S    YS     0.000000       15.9994           0
     542 110  0    DIA  H    YH     0.000000        1.0079           0
     543 111  0    DIA  S    YS     0.000000       15.9994           0
     544 111  0    DIA  H    YH     0.000000        1.0079           0
     545 112  0    DIA  S    YS     0.000000       15.9994           0
     546 112  0    DIA  H    YH     0.000000        1.0079           0
     547 113  0    DIA  S    YS     0.000000       15.9994           0
     548 113  0    DIA  H    YH     0.000000        1.0079           0
     549 114  0    DIA  S    YS     0.000000       15.9994           0
     550 114  0    DIA  H    YH     0.000000        1.0079           0
     551 115  0    DIA  S    YS     0.000000       15.9994           0
     552 115  0    DIA  H    YH     0.000000        1.0079           0
     553 116  0    DIA  S    YS     0.000000       15.9994           0
     554 116  0    DIA  H    YH     0.000000        1.0079           0
     555 117  0    DIA  S    YS     0.000000       15.9994           0
     556 117  0    DIA  H    YH     0.000000        1.0079           0
     557 118  0    DIA  S    YS     0.000000       15.9994           0
     558 118  0    DIA  H    YH     0.000000        1.0079           0
     559 119  0    DIA  S    YS     0.000000       15.9994           0
     560 119  0    DIA  H    YH     0.000000        1.0079           0
     561 120  0    DIA  S    YS     0.000000       15.9994           0
     562 120  0    DIA  H    YH     0.000000        1.0079           0
     563 121  0    DIA  S    YS     0.000000       15.9994           0
     564 121  0    DIA  H    YH     0.000000        1.0079           0
     565 122  0    DIA  S    YS     0.000000       15.9994           0
     566 122  0    DIA  H    YH     0.000000        1.0079           0
     567 123  0    DIA  S    YS     0.000000       15.9994           0
     568 123  0    DIA  H    YH     0.000000        1.0079           0
     569 124  0    DIA  S    YS     0.000000       15.9994           0
     570 124  0    DIA  H    YH     0.000000        1.0079           0
     571 125  0    DIA  S    YS     0.000000       15.9994           0
     572 125  0    DIA  H    YH     0.000000        1.0079           0
     573 126  0    DIA  S    YS     0.000000       15.9994           0
     574 126  0    DIA  H    YH     0.000000        1.0079           0
     575 127  0    DIA  S    YS     0.000000       15.9994           0
     576 127  0    DIA  H    YH     0.000000        1.0079           0
     577 128  0    DIA  S    YS     0.000000       15.9994           0
     578 128  0    DIA  H    YH     0.000000        1.0079           0
     579 129  0    DIA  S    YS     0.000000       15.9994           0
     580 129  0    DIA  H    YH     0.000000        1.0079           0
     581 130  0    DIA  S    YS     0.000000       15.9994           0
     582 130  0    DIA  H    YH     0.000000        1.0079           0
     583 131  0    DIA  S    YS     0.000000       15.9994           0
     584 131  0    DIA  H    YH     0.000000        1.0079           0
     585 132  0    DIA  S    YS     0.000000       15.9994           0
     586 132  0    DIA  H    YH     0.000000        1.0079           0
     587 133  0    DIA  S    YS     0.000000       15.9994           0
     588 133  0    DIA  H    YH     0.000000        1.0079           0
     589 134  0    DIA  S    YS     0.000000       15.9994           0
     590 134  0    DIA  H    YH     0.000000        1.0079           0
     591 135  0    DIA  S    YS     0.000000       15.9994           0
     592 135  0    DIA  H    YH     0.000000        1.0079           0
     593 136  0    DIA  S    YS     0.000000       15.9994           0
     594 136  0    DIA  H    YH     0.000000        1.0079           0
     595 137  0    DIA  S    YS     0.000000       15.9994           0
     596 137  0    DIA  H    YH     0.000000        1.0079           0
     597 138  0    DIA  S    YS     0.000000       15.9994           0
     598 138  0    DIA  H    YH     0.000000        1.0079           0
     599 139  0    DIA  S    YS     0.000000       15.9994           0
     600 139  0    DIA  H    YH     0.000000        1.0079           0
     601 140  0    DIA  S    YS     0.000000       15.9994           0
     602 140  0    DIA  H    YH     0.000000        1.0079           0
     603 141  0    DIA  S    YS     0.000000       15.9994           0
     604 141  0    DIA  H    YH     0.000000        1.0079           0
     605 142  0    DIA  S    YS     0.000000       15.9994           0
     606 142  0    DIA  H    YH     0.000000        1.0079           0
     607 143  0    DIA  S    YS     0.000000       15.9994           0
     608 143  0    DIA  H    YH     0.000000        1.0079           0
     609 144  0    DIA  S    YS     0.000000       15.9994           0
     610 144  0    DIA  H    YH     0.000000        1.0079           0
     611 145  0    DIA  S    YS     0.000000       15.9994           0
     612 145  0    DIA  H    YH     0.000000        1.0079           0
     613 146  0    DIA  S    YS     0.000000       15.9994           0
     614 146  0    DIA  H    YH     0.000000        1.0079           0
     615 147  0    DIA  S    YS     0.000000       15.9994           0
     616 147  0    DIA  H    YH     0.000000        1.0079           0
     617 148  0    DIA  S    YS     0.000000       15.9994           0
     618 148  0    DIA  H    YH     0.000000        1.0079           0
     619 149  0    DIA  S    YS     0.000000       15.9994           0
     620 149  0    DIA  H    YH     0.000000        1.0079           0
     621 150  0    DIA  S    YS     0.000000       15.9994           0
     622 150  0    DIA  H    YH     0.000000        1.0079           0
     623 151  0    DIA  S    YS     0.000000       15.9994           0
     624 151  0    DIA  H    YH     0.000000        1.0079           0
     625 152  0    DIA  S    YS     0.000000       15.9994           0
     626 152  0    DIA  H    YH     0.000000        1.0079           0
     627 153  0    DIA  S    YS     0.000000       15.9994           0
     628 153  0    DIA  H    YH     0.000000        1.0079           0
     629 154  0    DIA  S    YS     0.000000       15.9994           0
     630 154  0    DIA  H    YH     0.000000        1.0079           0
     631 155  0    DIA  S    YS     0.000000       15.9994           0
     632 155  0    DIA  H    YH     0.000000        1.0079           0
     633 156  0    DIA  S    YS     0.000000       15.9994           0
     634 156  0    DIA  H    YH     0.000000        1.0079           0
     635 157  0    DIA  S    YS     0.000000       15.9994           0
     636 157  0    DIA  H    YH     0.000000        1.0079           0
     637 158  0    DIA  S    YS     0.000000       15.9994           0
     638 158  0    DIA  H    YH     0.000000        1.0079           0
     639 159  0    DIA  S    YS     0.000000       15.9994           0
     640 159  0    DIA  H    YH     0.000000        1.0079           0
     641 O1   1    LIG  C    CR     0.280000       12.0110           0
     642 O1   1    LIG  C1   CR     0.280000       12.0110           0
     643 O1   1    LIG  C2   CR     0.280000       12.0110           0
     644 O1   1    LIG  H    HOCO   0.500000        1.0079           0
     645 O1   1    LIG  H1   HOR    0.400000        1.0079           0
     646 O1   1    LIG  H2   HOCO   0.500000        1.0079           0
     647 O1   1    LIG  H3   HOR    0.400000        1.0079           0
     648 O1   1    LIG  H4   HCMM   0.000000        1.0079           0
     649 O1   1    LIG  H5   HCMM   0.000000        1.0079           0
     650 O1   1    LIG  H6   HCMM   0.000000        1.0079           0
     651 O1   1    LIG  H7   HCMM   0.000000        1.0079           0
     652 O1   1    LIG  H8   HCMM   0.000000        1.0079           0
     653 O1   1    LIG  O    OR    -0.771200       15.9994           0
     654 O1   1    LIG  O1   OR    -0.680000       15.9994           0
     655 O1   1    LIG  O2   OR    -0.771200       15.9994           0
     656 O1   1    LIG  O3   OR    -0.680000       15.9994           0
     657 O1   1    LIG  O4   OR    -0.551200       15.9994           0
     658 O1   1    LIG  O5   O2CM  -0.700000       15.9994           0
     659 O1   1    LIG  P    PO4    1.513600       30.9738           0
     660 WT1  5    TIP3 OH2  OT    -0.834000       15.9994           0
     661 WT1  5    TIP3 H1   HT     0.417000        1.0080           0
     662 WT1  5    TIP3 H2   HT     0.417000        1.0080           0
     663 WT1  21   TIP3 OH2  OT    -0.834000       15.9994           0
     664 WT1  21   TIP3 H1   HT     0.417000        1.0080           0
     665 WT1  21   TIP3 H2   HT     0.417000        1.0080           0
     666 WT1  47   TIP3 OH2  OT    -0.834000       15.9994           0
     667 WT1  47   TIP3 H1   HT     0.417000        1.0080           0
     668 WT1  47   TIP3 H2   HT     0.417000        1.0080           0
     669 WT1  48   TIP3 OH2  OT    -0.834000       15.9994           0
     670 WT1  48   TIP3 H1   HT     0.417000        1.0080           0
     671 WT1  48   TIP3 H2   HT     0.417000        1.0080           0
     672 WT1  67   TIP3 OH2  OT    -0.834000       15.9994           0
     673 WT1  67   TIP3 H1   HT     0.417000        1.0080           0
     674 WT1  67   TIP3 H2   HT     0.417000        1.0080           0
     675 WT1  68   TIP3 OH2  OT    -0.834000       15.9994           0
     676 WT1  68   TIP3 H1   HT     0.417000        1.0080           0
     677 WT1  68   TIP3 H2   HT     0.417000        1.0080           0
     678 WT1  87   TIP3 OH2  OT    -0.834000       15.9994           0
     679 WT1  87   TIP3 H1   HT     0.417000        1.0080           0
     680 WT1  87   TIP3 H2   HT     0.417000        1.0080           0
     681 WT1  111  TIP3 OH2  OT    -0.834000       15.9994           0
     682 WT1  111  TIP3 H1   HT     0.417000        1.0080           0
     683 WT1  111  TIP3 H2   HT     0.417000        1.0080           0
     684 WT1  150  TIP3 OH2  OT    -0.834000       15.9994           0
     685 WT1  150  TIP3 H1   HT     0.417000        1.0080           0
     686 WT1  150  TIP3 H2   HT     0.417000        1.0080           0
     687 WT1  152  TIP3 OH2  OT    -0.834000       15.9994           0
     688 WT1  152  TIP3 H1   HT     0.417000        1.0080           0
     689 WT1  152  TIP3 H2   HT     0.417000        1.0080           0
     690 WT1  443  TIP3 OH2  OT    -0.834000       15.9994           0
     691 WT1  443  TIP3 H1   HT     0.417000        1.0080           0
     692 WT1  443  TIP3 H2   HT     0.417000        1.0080           0
     693 WT1  465  TIP3 OH2  OT    -0.834000       15.9994           0
     694 WT1  465  TIP3 H1   HT     0.417000        1.0080           0
     695 WT1  465  TIP3 H2   HT     0.417000        1.0080           0
     696 WT1  466  TIP3 OH2  OT    -0.834000       15.9994           0
     697 WT1  466  TIP3 H1   HT     0.417000        1.0080           0
     698 WT1  466  TIP3 H2   HT     0.417000        1.0080           0
     699 WT1  469  TIP3 OH2  OT    -0.834000       15.9994           0
     700 WT1  469  TIP3 H1   HT     0.417000        1.0080           0
     701 WT1  469  TIP3 H2   HT     0.417000        1.0080           0
     702 WT1  484  TIP3 OH2  OT    -0.834000       15.9994           0
     703 WT1  484  TIP3 H1   HT     0.417000        1.0080           0
     704 WT1  484  TIP3 H2   HT     0.417000        1.0080           0
     705 WT1  485  TIP3 OH2  OT    -0.834000       15.9994           0
     706 WT1  485  TIP3 H1   HT     0.417000        1.0080           0
     707 WT1  485  TIP3 H2   HT     0.417000        1.0080           0
     708 WT1  486  TIP3 OH2  OT    -0.834000       15.9994           0
     709 WT1  486  TIP3 H1   HT     0.417000        1.0080           0
     710 WT1  486  TIP3 H2   HT     0.417000        1.0080           0
     711 WT1  503  TIP3 OH2  OT    -0.834000       15.9994           0
     712 WT1  503  TIP3 H1   HT     0.417000        1.0080           0
     713 WT1  503  TIP3 H2   HT     0.417000        1.0080           0
     714 WT1  506  TIP3 OH2  OT    -0.834000       15.9994           0
     715 WT1  506  TIP3 H1   HT     0.417000        1.0080           0
     716 WT1  506  TIP3 H2   HT     0.417000        1.0080           0
     717 WT1  512  TIP3 OH2  OT    -0.834000       15.9994           0
     718 WT1  512  TIP3 H1   HT     0.417000        1.0080           0
     719 WT1  512  TIP3 H2   HT     0.417000        1.0080           0
     720 WT1  543  TIP3 OH2  OT    -0.834000       15.9994           0
     721 WT1  543  TIP3 H1   HT     0.417000        1.0080           0
     722 WT1  543  TIP3 H2   HT     0.417000        1.0080           0
     723 WT1  554  TIP3 OH2  OT    -0.834000       15.9994           0
     724 WT1  554  TIP3 H1   HT     0.417000        1.0080           0
     725 WT1  554  TIP3 H2   HT     0.417000        1.0080           0
     726 WT1  575  TIP3 OH2  OT    -0.834000       15.9994           0
     727 WT1  575  TIP3 H1   HT     0.417000        1.0080           0
     728 WT1  575  TIP3 H2   HT     0.417000        1.0080           0
     729 WT1  594  TIP3 OH2  OT    -0.834000       15.9994           0
     730 WT1  594  TIP3 H1   HT     0.417000        1.0080           0
     731 WT1  594  TIP3 H2   HT     0.417000        1.0080           0
     732 WT1  634  TIP3 OH2  OT    -0.834000       15.9994           0
     733 WT1  634  TIP3 H1   HT     0.417000        1.0080           0
     734 WT1  634  TIP3 H2   HT     0.417000        1.0080           0
     735 WT1  822  TIP3 OH2  OT    -0.834000       15.9994           0
     736 WT1  822  TIP3 H1   HT     0.417000        1.0080           0
     737 WT1  822  TIP3 H2   HT     0.417000        1.0080           0
     738 WT1  849  TIP3 OH2  OT    -0.834000       15.9994           0
     739 WT1  849  TIP3 H1   HT     0.417000        1.0080           0
     740 WT1  849  TIP3 H2   HT     0.417000        1.0080           0
     741 WT1  867  TIP3 OH2  OT    -0.834000       15.9994           0
     742 WT1  867  TIP3 H1   HT     0.417000        1.0080           0
     743 WT1  867  TIP3 H2   HT     0.417000        1.0080           0
     744 WT1  906  TIP3 OH2  OT    -0.834000       15.9994           0
     745 WT1  906  TIP3 H1   HT     0.417000        1.0080           0
     746 WT1  906  TIP3 H2   HT     0.417000        1.0080           0
     747 WT1  907  TIP3 OH2  OT    -0.834000       15.9994           0
     748 WT1  907  TIP3 H1   HT     0.417000        1.0080           0
     749 WT1  907  TIP3 H2   HT     0.417000        1.0080           0
     750 WT1  908  TIP3 OH2  OT    -0.834000       15.9994           0
     751 WT1  908  TIP3 H1   HT     0.417000        1.0080           0
     752 WT1  908  TIP3 H2   HT     0.417000        1.0080           0
     753 WT1  928  TIP3 OH2  OT    -0.834000       15.9994           0
     754 WT1  928  TIP3 H1   HT     0.417000        1.0080           0
     755 WT1  928  TIP3 H2   HT     0.417000        1.0080           0
     756 WT1  942  TIP3 OH2  OT    -0.834000       15.9994           0
     757 WT1  942  TIP3 H1   HT     0.417000        1.0080           0
     758 WT1  942  TIP3 H2   HT     0.417000        1.0080           0
     759 WT1  947  TIP3 OH2  OT    -0.834000       15.9994           0
     760 WT1  947  TIP3 H1   HT     0.417000        1.0080           0
     761 WT1  947  TIP3 H2   HT     0.417000        1.0080           0
     762 WT1  948  TIP3 OH2  OT    -0.834000       15.9994           0
     763 WT1  948  TIP3 H1   HT     0.417000        1.0080           0
     764 WT1  948  TIP3 H2   HT     0.417000        1.0080           0
     765 WT1  951  TIP3 OH2  OT    -0.834000       15.9994           0
     766 WT1  951  TIP3 H1   HT     0.417000        1.0080           0
     767 WT1  951  TIP3 H2   HT     0.417000        1.0080           0
     768 WT1  952  TIP3 OH2  OT    -0.834000       15.9994           0
     769 WT1  952  TIP3 H1   HT     0.417000        1.0080           0
     770 WT1  952  TIP3 H2   HT     0.417000        1.0080           0
     771 WT1  972  TIP3 OH2  OT    -0.834000       15.9994           0
     772 WT1  972  TIP3 H1   HT     0.417000        1.0080           0
     773 WT1  972  TIP3 H2   HT     0.417000        1.0080           0
     774 WT1  992  TIP3 OH2  OT    -0.834000       15.9994           0
     775 WT1  992  TIP3 H1   HT     0.417000        1.0080           0
     776 WT1  992  TIP3 H2   HT     0.417000        1.0080           0
     777 WT1  1007 TIP3 OH2  OT    -0.834000       15.9994           0
     778 WT1  1007 TIP3 H1   HT     0.417000        1.0080           0
     779 WT1  1007 TIP3 H2   HT     0.417000        1.0080           0
     780 WT1  1013 TIP3 OH2  OT    -0.834000       15.9994           0
     781 WT1  1013 TIP3 H1   HT     0.417000        1.0080           0
     782 WT1  1013 TIP3 H2   HT     0.417000        1.0080           0
     783 WT1  1017 TIP3 OH2  OT    -0.834000       15.9994           0
     784 WT1  1017 TIP3 H1   HT     0.417000        1.0080           0
     785 WT1  1017 TIP3 H2   HT     0.417000        1.0080           0
     786 WT1  1027 TIP3 OH2  OT    -0.834000       15.9994           0
     787 WT1  1027 TIP3 H1   HT     0.417000        1.0080           0
     788 WT1  1027 TIP3 H2   HT     0.417000        1.0080           0
     789 WT1  1032 TIP3 OH2  OT    -0.834000       15.9994           0
     790 WT1  1032 TIP3 H1   HT     0.417000        1.0080           0
     791 WT1  1032 TIP3 H2   HT     0.417000        1.0080           0
     792 WT1  1117 TIP3 OH2  OT    -0.834000       15.9994           0
     793 WT1  1117 TIP3 H1   HT     0.417000        1.0080           0
     794 WT1  1117 TIP3 H2   HT     0.417000        1.0080           0
     795 WT1  1301 TIP3 OH2  OT    -0.834000       15.9994           0
     796 WT1  1301 TIP3 H1   HT     0.417000        1.0080           0
     797 WT1  1301 TIP3 H2   HT     0.417000        1.0080           0
     798 WT1  1307 TIP3 OH2  OT    -0.834000       15.9994           0
     799 WT1  1307 TIP3 H1   HT     0.417000        1.0080           0
     800 WT1  1307 TIP3 H2   HT     0.417000        1.0080           0
     801 WT1  1326 TIP3 OH2  OT    -0.834000       15.9994           0
     802 WT1  1326 TIP3 H1   HT     0.417000        1.0080           0
     803 WT1  1326 TIP3 H2   HT     0.417000        1.0080           0
     804 WT1  1328 TIP3 OH2  OT    -0.834000       15.9994           0
     805 WT1  1328 TIP3 H1   HT     0.417000        1.0080           0
     806 WT1  1328 TIP3 H2   HT     0.417000        1.0080           0
     807 WT1  1329 TIP3 OH2  OT    -0.834000       15.9994           0
     808 WT1  1329 TIP3 H1   HT     0.417000        1.0080           0
     809 WT1  1329 TIP3 H2   HT     0.417000        1.0080           0
     810 WT1  1346 TIP3 OH2  OT    -0.834000       15.9994           0
     811 WT1  1346 TIP3 H1   HT     0.417000        1.0080           0
     812 WT1  1346 TIP3 H2   HT     0.417000        1.0080           0
     813 WT1  1349 TIP3 OH2  OT    -0.834000       15.9994           0
     814 WT1  1349 TIP3 H1   HT     0.417000        1.0080           0
     815 WT1  1349 TIP3 H2   HT     0.417000        1.0080           0
     816 WT1  1352 TIP3 OH2  OT    -0.834000       15.9994           0
     817 WT1  1352 TIP3 H1   HT     0.417000        1.0080           0
     818 WT1  1352 TIP3 H2   HT     0.417000        1.0080           0
     819 WT1  1367 TIP3 OH2  OT    -0.834000       15.9994           0
     820 WT1  1367 TIP3 H1   HT     0.417000        1.0080           0
     821 WT1  1367 TIP3 H2   HT     0.417000        1.0080           0
     822 WT1  1370 TIP3 OH2  OT    -0.834000       15.9994           0
     823 WT1  1370 TIP3 H1   HT     0.417000        1.0080           0
     824 WT1  1370 TIP3 H2   HT     0.417000        1.0080           0
     825 WT1  1371 TIP3 OH2  OT    -0.834000       15.9994           0
     826 WT1  1371 TIP3 H1   HT     0.417000        1.0080           0
     827 WT1  1371 TIP3 H2   HT     0.417000        1.0080           0
     828 WT1  1374 TIP3 OH2  OT    -0.834000       15.9994           0
     829 WT1  1374 TIP3 H1   HT     0.417000        1.0080           0
     830 WT1  1374 TIP3 H2   HT     0.417000        1.0080           0
     831 WT1  1387 TIP3 OH2  OT    -0.834000       15.9994           0
     832 WT1  1387 TIP3 H1   HT     0.417000        1.0080           0
     833 WT1  1387 TIP3 H2   HT     0.417000        1.0080           0
     834 WT1  1389 TIP3 OH2  OT    -0.834000       15.9994           0
     835 WT1  1389 TIP3 H1   HT     0.417000        1.0080           0
     836 WT1  1389 TIP3 H2   HT     0.417000        1.0080           0
     837 WT1  1392 TIP3 OH2  OT    -0.834000       15.9994           0
     838 WT1  1392 TIP3 H1   HT     0.417000        1.0080           0
     839 WT1  1392 TIP3 H2   HT     0.417000        1.0080           0
     840 WT1  1411 TIP3 OH2  OT    -0.834000       15.9994           0
     841 WT1  1411 TIP3 H1   HT     0.417000        1.0080           0
     842 WT1  1411 TIP3 H2   HT     0.417000        1.0080           0
     843 WT1  1412 TIP3 OH2  OT    -0.834000       15.9994           0
     844 WT1  1412 TIP3 H1   HT     0.417000        1.0080           0
     845 WT1  1412 TIP3 H2   HT     0.417000        1.0080           0
     846 WT1  1413 TIP3 OH2  OT    -0.834000       15.9994           0
     847 WT1  1413 TIP3 H1   HT     0.417000        1.0080           0
     848 WT1  1413 TIP3 H2   HT     0.417000        1.0080           0
     849 WT1  1428 TIP3 OH2  OT    -0.834000       15.9994           0
     850 WT1  1428 TIP3 H1   HT     0.417000        1.0080           0
     851 WT1  1428 TIP3 H2   HT     0.417000        1.0080           0
     852 WT1  1429 TIP3 OH2  OT    -0.834000       15.9994           0
     853 WT1  1429 TIP3 H1   HT     0.417000        1.0080           0
     854 WT1  1429 TIP3 H2   HT     0.417000        1.0080           0
     855 WT1  1457 TIP3 OH2  OT    -0.834000       15.9994           0
     856 WT1  1457 TIP3 H1   HT     0.417000        1.0080           0
     857 WT1  1457 TIP3 H2   HT     0.417000        1.0080           0
     858 WT1  1494 TIP3 OH2  OT    -0.834000       15.9994           0
     859 WT1  1494 TIP3 H1   HT     0.417000        1.0080           0
     860 WT1  1494 TIP3 H2   HT     0.417000        1.0080           0
     861 WT1  1497 TIP3 OH2  OT    -0.834000       15.9994           0
     862 WT1  1497 TIP3 H1   HT     0.417000        1.0080           0
     863 WT1  1497 TIP3 H2   HT     0.417000        1.0080           0
     864 WT1  1707 TIP3 OH2  OT    -0.834000       15.9994           0
     865 WT1  1707 TIP3 H1   HT     0.417000        1.0080           0
     866 WT1  1707 TIP3 H2   HT     0.417000        1.0080           0
     867 WT1  1723 TIP3 OH2  OT    -0.834000       15.9994           0
     868 WT1  1723 TIP3 H1   HT     0.417000        1.0080           0
     869 WT1  1723 TIP3 H2   HT     0.417000        1.0080           0
     870 WT1  1725 TIP3 OH2  OT    -0.834000       15.9994           0
     871 WT1  1725 TIP3 H1   HT     0.417000        1.0080           0
     872 WT1  1725 TIP3 H2   HT     0.417000        1.0080           0
     873 WT1  1730 TIP3 OH2  OT    -0.834000       15.9994           0
     874 WT1  1730 TIP3 H1   HT     0.417000        1.0080           0
     875 WT1  1730 TIP3 H2   HT     0.417000        1.0080           0
     876 WT1  1733 TIP3 OH2  OT    -0.834000       15.9994           0
     877 WT1  1733 TIP3 H1   HT     0.417000        1.0080           0
     878 WT1  1733 TIP3 H2   HT     0.417000        1.0080           0
     879 WT1  1744 TIP3 OH2  OT    -0.834000       15.9994           0
     880 WT1  1744 TIP3 H1   HT     0.417000        1.0080           0
     881 WT1  1744 TIP3 H2   HT     0.417000        1.0080           0
     882 WT1  1766 TIP3 OH2  OT    -0.834000       15.9994           0
     883 WT1  1766 TIP3 H1   HT     0.417000        1.0080           0
     884 WT1  1766 TIP3 H2   HT     0.417000        1.0080           0
     885 WT1  1771 TIP3 OH2  OT    -0.834000       15.9994           0
     886 WT1  1771 TIP3 H1   HT     0.417000        1.0080           0
     887 WT1  1771 TIP3 H2   HT     0.417000        1.0080           0
     888 WT1  1773 TIP3 OH2  OT    -0.834000       15.9994           0
     889 WT1  1773 TIP3 H1   HT     0.417000        1.0080           0
     890 WT1  1773 TIP3 H2   HT     0.417000        1.0080           0
     891 WT1  1789 TIP3 OH2  OT    -0.834000       15.9994           0
     892 WT1  1789 TIP3 H1   HT     0.417000        1.0080           0
     893 WT1  1789 TIP3 H2   HT     0.417000        1.0080           0
     894 WT1  1790 TIP3 OH2  OT    -0.834000       15.9994           0
     895 WT1  1790 TIP3 H1   HT     0.417000        1.0080           0
     896 WT1  1790 TIP3 H2   HT     0.417000        1.0080           0
     897 WT1  1813 TIP3 OH2  OT    -0.834000       15.9994           0
     898 WT1  1813 TIP3 H1   HT     0.417000        1.0080           0
     899 WT1  1813 TIP3 H2   HT     0.417000        1.0080           0
     900 WT1  1830 TIP3 OH2  OT    -0.834000       15.9994           0
     901 WT1  1830 TIP3 H1   HT     0.417000        1.0080           0
     902 WT1  1830 TIP3 H2   HT     0.417000        1.0080           0
     903 WT1  1831 TIP3 OH2  OT    -0.834000       15.9994           0
     904 WT1  1831 TIP3 H1   HT     0.417000        1.0080           0
     905 WT1  1831 TIP3 H2   HT     0.417000        1.0080           0
     906 WT1  1853 TIP3 OH2  OT    -0.834000       15.9994           0
     907 WT1  1853 TIP3 H1   HT     0.417000        1.0080           0
     908 WT1  1853 TIP3 H2   HT     0.417000        1.0080           0
     909 WT1  1856 TIP3 OH2  OT    -0.834000       15.9994           0
     910 WT1  1856 TIP3 H1   HT     0.417000        1.0080           0
     911 WT1  1856 TIP3 H2   HT     0.417000        1.0080           0
     912 WT1  1871 TIP3 OH2  OT    -0.834000       15.9994           0
     913 WT1  1871 TIP3 H1   HT     0.417000        1.0080           0
     914 WT1  1871 TIP3 H2   HT     0.417000        1.0080           0
     915 WT1  1894 TIP3 OH2  OT    -0.834000       15.9994           0
     916 WT1  1894 TIP3 H1   HT     0.417000        1.0080           0
     917 WT1  1894 TIP3 H2   HT     0.417000        1.0080           0
     918 WT1  1915 TIP3 OH2  OT    -0.834000       15.9994           0
     919 WT1  1915 TIP3 H1   HT     0.417000        1.0080           0
     920 WT1  1915 TIP3 H2   HT     0.417000        1.0080           0
     921 WT1  2123 TIP3 OH2  OT    -0.834000       15.9994           0
     922 WT1  2123 TIP3 H1   HT     0.417000        1.0080           0
     923 WT1  2123 TIP3 H2   HT     0.417000        1.0080           0
     924 WT1  2163 TIP3 OH2  OT    -0.834000       15.9994           0
     925 WT1  2163 TIP3 H1   HT     0.417000        1.0080           0
     926 WT1  2163 TIP3 H2   HT     0.417000        1.0080           0
     927 WT1  2165 TIP3 OH2  OT    -0.834000       15.9994           0
     928 WT1  2165 TIP3 H1   HT     0.417000        1.0080           0
     929 WT1  2165 TIP3 H2   HT     0.417000        1.0080           0
     930 WT1  2227 TIP3 OH2  OT    -0.834000       15.9994           0
     931 WT1  2227 TIP3 H1   HT     0.417000        1.0080           0
     932 WT1  2227 TIP3 H2   HT     0.417000        1.0080           0
     933 WT1  2231 TIP3 OH2  OT    -0.834000       15.9994           0
     934 WT1  2231 TIP3 H1   HT     0.417000        1.0080           0
     935 WT1  2231 TIP3 H2   HT     0.417000        1.0080           0
     936 WT1  2250 TIP3 OH2  OT    -0.834000       15.9994           0
     937 WT1  2250 TIP3 H1   HT     0.417000        1.0080           0
     938 WT1  2250 TIP3 H2   HT     0.417000        1.0080           0
     939 WT1  2251 TIP3 OH2  OT    -0.834000       15.9994           0
     940 WT1  2251 TIP3 H1   HT     0.417000        1.0080           0
     941 WT1  2251 TIP3 H2   HT     0.417000        1.0080           0
     942 WT1  2254 TIP3 OH2  OT    -0.834000       15.9994           0
     943 WT1  2254 TIP3 H1   HT     0.417000        1.0080           0
     944 WT1  2254 TIP3 H2   HT     0.417000        1.0080           0
     945 WT1  2270 TIP3 OH2  OT    -0.834000       15.9994           0
     946 WT1  2270 TIP3 H1   HT     0.417000        1.0080           0
     947 WT1  2270 TIP3 H2   HT     0.417000        1.0080           0
     948 WT1  2275 TIP3 OH2  OT    -0.834000       15.9994           0
     949 WT1  2275 TIP3 H1   HT     0.417000        1.0080           0
     950 WT1  2275 TIP3 H2   HT     0.417000        1.0080           0
     951 WT1  2288 TIP3 OH2  OT    -0.834000       15.9994           0
     952 WT1  2288 TIP3 H1   HT     0.417000        1.0080           0
     953 WT1  2288 TIP3 H2   HT     0.417000        1.0080           0
     954 WT1  2292 TIP3 OH2  OT    -0.834000       15.9994           0
     955 WT1  2292 TIP3 H1   HT     0.417000        1.0080           0
     956 WT1  2292 TIP3 H2   HT     0.417000        1.0080           0
     957 WT1  2311 TIP3 OH2  OT    -0.834000       15.9994           0
     958 WT1  2311 TIP3 H1   HT     0.417000        1.0080           0
     959 WT1  2311 TIP3 H2   HT     0.417000        1.0080           0
     960 WT1  2316 TIP3 OH2  OT    -0.834000       15.9994           0
     961 WT1  2316 TIP3 H1   HT     0.417000        1.0080           0
     962 WT1  2316 TIP3 H2   HT     0.417000        1.0080           0
     963 WT1  2317 TIP3 OH2  OT    -0.834000       15.9994           0
     964 WT1  2317 TIP3 H1   HT     0.417000        1.0080           0
     965 WT1  2317 TIP3 H2   HT     0.417000        1.0080           0
     966 WT1  2335 TIP3 OH2  OT    -0.834000       15.9994           0
     967 WT1  2335 TIP3 H1   HT     0.417000        1.0080           0
     968 WT1  2335 TIP3 H2   HT     0.417000        1.0080           0
     969 WT1  2355 TIP3 OH2  OT    -0.834000       15.9994           0
     970 WT1  2355 TIP3 H1   HT     0.417000        1.0080           0
     971 WT1  2355 TIP3 H2   HT     0.417000        1.0080           0
     972 WT1  2357 TIP3 OH2  OT    -0.834000       15.9994           0
     973 WT1  2357 TIP3 H1   HT     0.417000        1.0080           0
     974 WT1  2357 TIP3 H2   HT     0.417000        1.0080           0
     975 WT1  2358 TIP3 OH2  OT    -0.834000       15.9994           0
     976 WT1  2358 TIP3 H1   HT     0.417000        1.0080           0
     977 WT1  2358 TIP3 H2   HT     0.417000        1.0080           0
     978 WT1  2377 TIP3 OH2  OT    -0.834000       15.9994           0
     979 WT1  2377 TIP3 H1   HT     0.417000        1.0080           0
     980 WT1  2377 TIP3 H2   HT     0.417000        1.0080           0
     981 WT1  2380 TIP3 OH2  OT    -0.834000       15.9994           0
     982 WT1  2380 TIP3 H1   HT     0.417000        1.0080           0
     983 WT1  2380 TIP3 H2   HT     0.417000        1.0080           0
     984 WT1  2606 TIP3 OH2  OT    -0.834000       15.9994           0
     985 WT1  2606 TIP3 H1   HT     0.417000        1.0080           0
     986 WT1  2606 TIP3 H2   HT     0.417000        1.0080           0
     987 WT1  2607 TIP3 OH2  OT    -0.834000       15.9994           0
     988 WT1  2607 TIP3 H1   HT     0.417000        1.0080           0
     989 WT1  2607 TIP3 H2   HT     0.417000        1.0080           0
     990 WT1  2608 TIP3 OH2  OT    -0.834000       15.9994           0
     991 WT1  2608 TIP3 H1   HT     0.417000        1.0080           0
     992 WT1  2608 TIP3 H2   HT     0.417000        1.0080           0
     993 WT1  2634 TIP3 OH2  OT    -0.834000       15.9994           0
     994 WT1  2634 TIP3 H1   HT     0.417000        1.0080           0
     995 WT1  2634 TIP3 H2   HT     0.417000        1.0080           0
     996 WT1  2669 TIP3 OH2  OT    -0.834000       15.9994           0
     997 WT1  2669 TIP3 H1   HT     0.417000        1.0080           0
     998 WT1  2669 TIP3 H2   HT     0.417000        1.0080           0
     999 WT1  2691 TIP3 OH2  OT    -0.834000       15.9994           0
    1000 WT1  2691 TIP3 H1   HT     0.417000        1.0080           0
    1001 WT1  2691 TIP3 H2   HT     0.417000        1.0080           0
    1002 WT1  2694 TIP3 OH2  OT    -0.834000       15.9994           0
    1003 WT1  2694 TIP3 H1   HT     0.417000        1.0080           0
    1004 WT1  2694 TIP3 H2   HT     0.417000        1.0080           0
    1005 WT1  2715 TIP3 OH2  OT    -0.834000       15.9994           0
    1006 WT1  2715 TIP3 H1   HT     0.417000        1.0080           0
    1007 WT1  2715 TIP3 H2   HT     0.417000        1.0080           0
    1008 WT1  2732 TIP3 OH2  OT    -0.834000       15.9994           0
    1009 WT1  2732 TIP3 H1   HT     0.417000        1.0080           0
    1010 WT1  2732 TIP3 H2   HT     0.417000        1.0080           0
    1011 WT1  2734 TIP3 OH2  OT    -0.834000       15.9994           0
    1012 WT1  2734 TIP3 H1   HT     0.417000        1.0080           0
    1013 WT1  2734 TIP3 H2   HT     0.417000        1.0080           0
    1014 WT1  2735 TIP3 OH2  OT    -0.834000       15.9994           0
    1015 WT1  2735 TIP3 H1   HT     0.417000        1.0080           0
    1016 WT1  2735 TIP3 H2   HT     0.417000        1.0080           0
    1017 WT1  2815 TIP3 OH2  OT    -0.834000       15.9994           0
    1018 WT1  2815 TIP3 H1   HT     0.417000        1.0080           0
    1019 WT1  2815 TIP3 H2   HT     0.417000        1.0080           0
    1020 WT1  3010 TIP3 OH2  OT    -0.834000       15.9994           0
    1021 WT1  3010 TIP3 H1   HT     0.417000        1.0080           0
    1022 WT1  3010 TIP3 H2   HT     0.417000        1.0080           0
    1023 WT1  3012 TIP3 OH2  OT    -0.834000       15.9994           0
    1024 WT1  3012 TIP3 H1   HT     0.417000        1.0080           0
    1025 WT1  3012 TIP3 H2   HT     0.417000        1.0080           0
    1026 WT1  3049 TIP3 OH2  OT    -0.834000       15.9994           0
    1027 WT1  3049 TIP3 H1   HT     0.417000        1.0080           0
    1028 WT1  3049 TIP3 H2   HT     0.417000        1.0080           0
    1029 WT1  3072 TIP3 OH2  OT    -0.834000       15.9994           0
    1030 WT1  3072 TIP3 H1   HT     0.417000        1.0080           0
    1031 WT1  3072 TIP3 H2   HT     0.417000        1.0080           0
    1032 WT1  3073 TIP3 OH2  OT    -0.834000       15.9994           0
    1033 WT1  3073 TIP3 H1   HT     0.417000        1.0080           0
    1034 WT1  3073 TIP3 H2   HT     0.417000        1.0080           0
    1035 WT1  3086 TIP3 OH2  OT    -0.834000       15.9994           0
    1036 WT1  3086 TIP3 H1   HT     0.417000        1.0080           0
    1037 WT1  3086 TIP3 H2   HT     0.417000        1.0080           0
    1038 WT1  3091 TIP3 OH2  OT    -0.834000       15.9994           0
    1039 WT1  3091 TIP3 H1   HT     0.417000        1.0080           0
    1040 WT1  3091 TIP3 H2   HT     0.417000        1.0080           0
    1041 WT1  3108 TIP3 OH2  OT    -0.834000       15.9994           0
    1042 WT1  3108 TIP3 H1   HT     0.417000        1.0080           0
    1043 WT1  3108 TIP3 H2   HT     0.417000        1.0080           0
    1044 WT1  3150 TIP3 OH2  OT    -0.834000       15.9994           0
    1045 WT1  3150 TIP3 H1   HT     0.417000        1.0080           0
    1046 WT1  3150 TIP3 H2   HT     0.417000        1.0080           0
    1047 WT1  3173 TIP3 OH2  OT    -0.834000       15.9994           0
    1048 WT1  3173 TIP3 H1   HT     0.417000        1.0080           0
    1049 WT1  3173 TIP3 H2   HT     0.417000        1.0080           0
    1050 WT1  3177 TIP3 OH2  OT    -0.834000       15.9994           0
    1051 WT1  3177 TIP3 H1   HT     0.417000        1.0080           0
    1052 WT1  3177 TIP3 H2   HT     0.417000        1.0080           0
    1053 WT1  3426 TIP3 OH2  OT    -0.834000       15.9994           0
    1054 WT1  3426 TIP3 H1   HT     0.417000        1.0080           0
    1055 WT1  3426 TIP3 H2   HT     0.417000        1.0080           0
    1056 WT1  3442 TIP3 OH2  OT    -0.834000       15.9994           0
    1057 WT1  3442 TIP3 H1   HT     0.417000        1.0080           0
    1058 WT1  3442 TIP3 H2   HT     0.417000        1.0080           0
    1059 WT1  3447 TIP3 OH2  OT    -0.834000       15.9994           0
    1060 WT1  3447 TIP3 H1   HT     0.417000        1.0080           0
    1061 WT1  3447 TIP3 H2   HT     0.417000        1.0080           0
    1062 WT1  3526 TIP3 OH2  OT    -0.834000       15.9994           0
    1063 WT1  3526 TIP3 H1   HT     0.417000        1.0080           0
    1064 WT1  3526 TIP3 H2   HT     0.417000        1.0080           0
    1065 WT1  3527 TIP3 OH2  OT    -0.834000       15.9994           0
    1066 WT1  3527 TIP3 H1   HT     0.417000        1.0080           0
    1067 WT1  3527 TIP3 H2   HT     0.417000        1.0080           0
    1068 WT1  3545 TIP3 OH2  OT    -0.834000       15.9994           0
    1069 WT1  3545 TIP3 H1   HT     0.417000        1.0080           0
    1070 WT1  3545 TIP3 H2   HT     0.417000        1.0080           0
    1071 WT1  3548 TIP3 OH2  OT    -0.834000       15.9994           0
    1072 WT1  3548 TIP3 H1   HT     0.417000        1.0080           0
    1073 WT1  3548 TIP3 H2   HT     0.417000        1.0080           0
    1074 WT1  3554 TIP3 OH2  OT    -0.834000       15.9994           0
    1075 WT1  3554 TIP3 H1   HT     0.417000        1.0080           0
    1076 WT1  3554 TIP3 H2   HT     0.417000        1.0080           0
    1077 WT1  3575 TIP3 OH2  OT    -0.834000       15.9994           0
    1078 WT1  3575 TIP3 H1   HT     0.417000        1.0080           0
    1079 WT1  3575 TIP3 H2   HT     0.417000        1.0080           0
    1080 WT1  3619 TIP3 OH2  OT    -0.834000       15.9994           0
    1081 WT1  3619 TIP3 H1   HT     0.417000        1.0080           0
    1082 WT1  3619 TIP3 H2   HT     0.417000        1.0080           0
    1083 WT1  3641 TIP3 OH2  OT    -0.834000       15.9994           0
    1084 WT1  3641 TIP3 H1   HT     0.417000        1.0080           0
    1085 WT1  3641 TIP3 H2   HT     0.417000        1.0080           0
    1086 WT1  3653 TIP3 OH2  OT    -0.834000       15.9994           0
    1087 WT1  3653 TIP3 H1   HT     0.417000        1.0080           0
    1088 WT1  3653 TIP3 H2   HT     0.417000        1.0080           0
    1089 WT1  3662 TIP3 OH2  OT    -0.834000       15.9994           0
    1090 WT1  3662 TIP3 H1   HT     0.417000        1.0080           0
    1091 WT1  3662 TIP3 H2   HT     0.417000        1.0080           0
    1092 WT1  3933 TIP3 OH2  OT    -0.834000       15.9994           0
    1093 WT1  3933 TIP3 H1   HT     0.417000        1.0080           0
    1094 WT1  3933 TIP3 H2   HT     0.417000        1.0080           0
    1095 WT1  3951 TIP3 OH2  OT    -0.834000       15.9994           0
    1096 WT1  3951 TIP3 H1   HT     0.417000        1.0080           0
    1097 WT1  3951 TIP3 H2   HT     0.417000        1.0080           0
    1098 WT1  3976 TIP3 OH2  OT    -0.834000       15.9994           0
    1099 WT1  3976 TIP3 H1   HT     0.417000        1.0080           0
    1100 WT1  3976 TIP3 H2   HT     0.417000        1.0080           0
    1101 WT1  3977 TIP3 OH2  OT    -0.834000       15.9994           0
    1102 WT1  3977 TIP3 H1   HT     0.417000        1.0080           0
    1103 WT1  3977 TIP3 H2   HT     0.417000        1.0080           0
    1104 WT1  3991 TIP3 OH2  OT    -0.834000       15.9994           0
    1105 WT1  3991 TIP3 H1   HT     0.417000        1.0080           0
    1106 WT1  3991 TIP3 H2   HT     0.417000        1.0080           0
    1107 WT1  3996 TIP3 OH2  OT    -0.834000       15.9994           0
    1108 WT1  3996 TIP3 H1   HT     0.417000        1.0080           0
    1109 WT1  3996 TIP3 H2   HT     0.417000        1.0080           0
    1110 WT1  4012 TIP3 OH2  OT    -0.834000       15.9994           0
    1111 WT1  4012 TIP3 H1   HT     0.417000        1.0080           0
    1112 WT1  4012 TIP3 H2   HT     0.417000        1.0080           0
    1113 WT1  4037 TIP3 OH2  OT    -0.834000       15.9994           0
    1114 WT1  4037 TIP3 H1   HT     0.417000        1.0080           0
    1115 WT1  4037 TIP3 H2   HT     0.417000        1.0080           0
    1116 WT1  4074 TIP3 OH2  OT    -0.834000       15.9994           0
    1117 WT1  4074 TIP3 H1   HT     0.417000        1.0080           0
    1118 WT1  4074 TIP3 H2   HT     0.417000        1.0080           0
    1119 WT1  4501 TIP3 OH2  OT    -0.834000       15.9994           0
    1120 WT1  4501 TIP3 H1   HT     0.417000        1.0080           0
    1121 WT1  4501 TIP3 H2   HT     0.417000        1.0080           0
    1122 WT1  4515 TIP3 OH2  OT    -0.834000       15.9994           0
    1123 WT1  4515 TIP3 H1   HT     0.417000        1.0080           0
    1124 WT1  4515 TIP3 H2   HT     0.417000        1.0080           0
    1125 WT1  4809 TIP3 OH2  OT    -0.834000       15.9994           0
    1126 WT1  4809 TIP3 H1   HT     0.417000        1.0080           0
    1127 WT1  4809 TIP3 H2   HT     0.417000        1.0080           0
    1128 WT1  4849 TIP3 OH2  OT    -0.834000       15.9994           0
    1129 WT1  4849 TIP3 H1   HT     0.417000        1.0080           0
    1130 WT1  4849 TIP3 H2   HT     0.417000        1.0080           0
    1131 WT1  4857 TIP3 OH2  OT    -0.834000       15.9994           0
    1132 WT1  4857 TIP3 H1   HT     0.417000        1.0080           0
    1133 WT1  4857 TIP3 H2   HT     0.417000        1.0080           0
    1134 WT1  4981 TIP3 OH2  OT    -0.834000       15.9994           0
    1135 WT1  4981 TIP3 H1   HT     0.417000        1.0080           0
    1136 WT1  4981 TIP3 H2   HT     0.417000        1.0080           0
    1137 WT1  5341 TIP3 OH2  OT    -0.834000       15.9994           0
    1138 WT1  5341 TIP3 H1   HT     0.417000        1.0080           0
    1139 WT1  5341 TIP3 H2   HT     0.417000        1.0080           0
    1140 WT1  6240 TIP3 OH2  OT    -0.834000       15.9994           0
    1141 WT1  6240 TIP3 H1   HT     0.417000        1.0080           0
    1142 WT1  6240 TIP3 H2   HT     0.417000        1.0080           0
    1143 WT1  7479 TIP3 OH2  OT    -0.834000       15.9994           0
    1144 WT1  7479 TIP3 H1   HT     0.417000        1.0080           0
    1145 WT1  7479 TIP3 H2   HT     0.417000        1.0080           0
    1146 WT1  7510 TIP3 OH2  OT    -0.834000       15.9994           0
    1147 WT1  7510 TIP3 H1   HT     0.417000        1.0080           0
    1148 WT1  7510 TIP3 H2   HT     0.417000        1.0080           0
    1149 WT1  7630 TIP3 OH2  OT    -0.834000       15.9994           0
    1150 WT1  7630 TIP3 H1   HT     0.417000        1.0080           0
    1151 WT1  7630 TIP3 H2   HT     0.417000        1.0080           0
    1152 WT1  7707 TIP3 OH2  OT    -0.834000       15.9994           0
    1153 WT1  7707 TIP3 H1   HT     0.417000        1.0080           0
    1154 WT1  7707 TIP3 H2   HT     0.417000        1.0080           0
    1155 WT1  7985 TIP3 OH2  OT    -0.834000       15.9994           0
    1156 WT1  7985 TIP3 H1   HT     0.417000        1.0080           0
    1157 WT1  7985 TIP3 H2   HT     0.417000        1.0080           0
    1158 WT1  8023 TIP3 OH2  OT    -0.834000       15.9994           0
    1159 WT1  8023 TIP3 H1   HT     0.417000        1.0080           0
    1160 WT1  8023 TIP3 H2   HT     0.417000        1.0080           0
    1161 WT1  8029 TIP3 OH2  OT    -0.834000       15.9994           0
    1162 WT1  8029 TIP3 H1   HT     0.417000        1.0080           0
    1163 WT1  8029 TIP3 H2   HT     0.417000        1.0080           0
    1164 WT1  8364 TIP3 OH2  OT    -0.834000       15.9994           0
    1165 WT1  8364 TIP3 H1   HT     0.417000        1.0080           0
    1166 WT1  8364 TIP3 H2   HT     0.417000        1.0080           0
    1167 WT1  8411 TIP3 OH2  OT    -0.834000       15.9994           0
    1168 WT1  8411 TIP3 H1   HT     0.417000        1.0080           0
    1169 WT1  8411 TIP3 H2   HT     0.417000        1.0080           0
    1170 WT1  8466 TIP3 OH2  OT    -0.834000       15.9994           0
    1171 WT1  8466 TIP3 H1   HT     0.417000        1.0080           0
    1172 WT1  8466 TIP3 H2   HT     0.417000        1.0080           0
    1173 WT1  8468 TIP3 OH2  OT    -0.834000       15.9994           0
    1174 WT1  8468 TIP3 H1   HT     0.417000        1.0080           0
    1175 WT1  8468 TIP3 H2   HT     0.417000        1.0080           0
    1176 WT1  8528 TIP3 OH2  OT    -0.834000       15.9994           0
    1177 WT1  8528 TIP3 H1   HT     0.417000        1.0080           0
    1178 WT1  8528 TIP3 H2   HT     0.417000        1.0080           0
    1179 WT1  8548 TIP3 OH2  OT    -0.834000       15.9994           0
    1180 WT1  8548 TIP3 H1   HT     0.417000        1.0080           0
    1181 WT1  8548 TIP3 H2   HT     0.417000        1.0080           0
    1182 WT1  8801 TIP3 OH2  OT    -0.834000       15.9994           0
    1183 WT1  8801 TIP3 H1   HT     0.417000        1.0080           0
    1184 WT1  8801 TIP3 H2   HT     0.417000        1.0080           0
    1185 WT1  8822 TIP3 OH2  OT    -0.834000       15.9994           0
    1186 WT1  8822 TIP3 H1   HT     0.417000        1.0080           0
    1187 WT1  8822 TIP3 H2   HT     0.417000        1.0080           0
    1188 WT1  8829 TIP3 OH2  OT    -0.834000       15.9994           0
    1189 WT1  8829 TIP3 H1   HT     0.417000        1.0080           0
    1190 WT1  8829 TIP3 H2   HT     0.417000        1.0080           0
    1191 WT1  8843 TIP3 OH2  OT    -0.834000       15.9994           0
    1192 WT1  8843 TIP3 H1   HT     0.417000        1.0080           0
    1193 WT1  8843 TIP3 H2   HT     0.417000        1.0080           0
    1194 WT1  8845 TIP3 OH2  OT    -0.834000       15.9994           0
    1195 WT1  8845 TIP3 H1   HT     0.417000        1.0080           0
    1196 WT1  8845 TIP3 H2   HT     0.417000        1.0080           0
    1197 WT1  8869 TIP3 OH2  OT    -0.834000       15.9994           0
    1198 WT1  8869 TIP3 H1   HT     0.417000        1.0080           0
    1199 WT1  8869 TIP3 H2   HT     0.417000        1.0080           0
    1200 WT1  8903 TIP3 OH2  OT    -0.834000       15.9994           0
    1201 WT1  8903 TIP3 H1   HT     0.417000        1.0080           0
    1202 WT1  8903 TIP3 H2   HT     0.417000        1.0080           0
    1203 WT1  8905 TIP3 OH2  OT    -0.834000       15.9994           0
    1204 WT1  8905 TIP3 H1   HT     0.417000        1.0080           0
    1205 WT1  8905 TIP3 H2   HT     0.417000        1.0080           0
    1206 WT1  8935 TIP3 OH2  OT    -0.834000       15.9994           0
    1207 WT1  8935 TIP3 H1   HT     0.417000        1.0080           0
    1208 WT1  8935 TIP3 H2   HT     0.417000        1.0080           0
    1209 WT1  8949 TIP3 OH2  OT    -0.834000       15.9994           0
    1210 WT1  8949 TIP3 H1   HT     0.417000        1.0080           0
    1211 WT1  8949 TIP3 H2   HT     0.417000        1.0080           0
    1212 WT1  8977 TIP3 OH2  OT    -0.834000       15.9994           0
    1213 WT1  8977 TIP3 H1   HT     0.417000        1.0080           0
    1214 WT1  8977 TIP3 H2   HT     0.417000        1.0080           0
    1215 WT1  9082 TIP3 OH2  OT    -0.834000       15.9994           0
    1216 WT1  9082 TIP3 H1   HT     0.417000        1.0080           0
    1217 WT1  9082 TIP3 H2   HT     0.417000        1.0080           0
    1218 WT1  9096 TIP3 OH2  OT    -0.834000       15.9994           0
    1219 WT1  9096 TIP3 H1   HT     0.417000        1.0080           0
    1220 WT1  9096 TIP3 H2   HT     0.417000        1.0080           0
    1221 WT1  9226 TIP3 OH2  OT    -0.834000       15.9994           0
    1222 WT1  9226 TIP3 H1   HT     0.417000        1.0080           0
    1223 WT1  9226 TIP3 H2   HT     0.417000        1.0080           0
    1224 WT1  9241 TIP3 OH2  OT    -0.834000       15.9994           0
    1225 WT1  9241 TIP3 H1   HT     0.417000        1.0080           0
    1226 WT1  9241 TIP3 H2   HT     0.417000        1.0080           0

     928 !NBOND: bonds
       1     329       2     331       3     333       4     335
       9     401       9     345       9     403      10     403
      10     347      10     405      11     405      11     349
      11     407      12     407      12     351      13     409
      13     411      14     411      14     413      15     413
      15     415      16     415      17     361      17     417
      17     419      18     363      18     419      18     421
      19     365      19     421      19     423      20     423
      20     367      21     425      21     427      22     427
      22     429      23     429      23     431      24     431
      25     377      25     433      25     435      26     379
      26     435      26     437      27     381      27     437
      27     439      28     439      28     383      29     441
      29     443      30     443      30     445      31     445
      31     447      32     447      33     393      33     451
      33     449      34     395      34     453      34     451
      35     397      35     455      35     453      36     399
      36     455      37     459      37     457      38     461
      38     459      39     463      39     461      40     463
      41     337      42     339      42     337      43     341
      43     339      44     343      44     341      45     401
      45     345      46     403      46     347      46     345
      47     405      47     349      47     347      48     407
      48     351      48     349      49     353      50     353
      50     355      51     355      51     357      52     357
      52     359      53     361      53     417      54     361
      54     363      54     419      55     363      55     365
      55     421      56     365      56     423      56     367
      57     369      58     369      58     371      59     371
      59     373      60     373      60     375      61     377
      61     433      62     377      62     379      62     435
      63     379      63     381      63     437      64     381
      64     439      64     383      65     385      66     385
      66     387      67     387      67     389      68     389
      68     391      69     393      69     449      70     393
      70     395      70     451      71     395      71     397
      71     453      72     397      72     399      72     455
      77     465      78     467      79     469      80     471
      81     561      81     481      82     561      82     563
      82     483      83     563      83     565      83     485
      84     565      84     487      84     567      85     569
      85     489      86     569      86     571      86     491
      87     571      87     573      87     493      88     573
      88     495      88     575      89     577      89     497
      90     577      90     579      90     499      91     579
      91     581      91     501      92     581      92     503
      92     583      93     585      93     505      94     585
      94     587      94     507      95     587      95     589
      95     509      96     589      96     511      96     591
      97     513      97     593      98     593      98     515
      98     595      99     595      99     517      99     597
     100     597     100     519     100     599     101     521
     101     601     102     601     102     523     102     603
     103     603     103     525     103     605     104     605
     104     527     104     607     105     609     105     529
     106     609     106     611     106     531     107     611
     107     613     107     533     108     613     108     535
     108     615     109     617     109     537     110     617
     110     619     110     539     111     619     111     621
     111     541     112     621     112     543     112     623
     113     625     113     545     114     625     114     627
     114     547     115     627     115     629     115     549
     116     629     116     551     116     631     117     633
     117     553     118     633     118     635     118     555
     119     635     119     637     119     557     120     637
     120     559     120     639     121     561     121     481
     121     483     122     563     122     483     122     485
     123     565     123     485     123     487     124     487
     124     567     125     569     125     489     125     491
     126     571     126     491     126     493     127     573
     127     493     127     495     128     495     128     575
     129     577     129     497     129     499     130     579
     130     499     130     501     131     581     131     501
     131     503     132     503     132     583     133     585
     133     505     133     507     134     587     134     507
     134     509     135     589     135     509     135     511
     136     511     136     591     137     513     137     593
     137     515     138     515     138     595     138     517
     139     517     139     597     139     519     140     519
     140     599     141     521     141     601     141     523
     142     523     142     603     142     525     143     525
     143     605     143     527     144     527     144     607
     145     609     145     529     145     531     146     611
     146     531     146     533     147     613     147     533
     147     535     148     615     148     535     149     617
     149     537     149     539     150     619     150     539
     150     541     151     621     151     541     151     543
     152     623     152     543     153     625     153     545
     153     547     154     627     154     547     154     549
     155     629     155     549     155     551     156     631
     156     551     157     633     157     553     157     555
     158     635     158     555     158     557     159     637
     159     557     159     559     160     639     160     559
     321     322     323     324     325     326     327     328
     329     330     331     332     333     334     335     336
     337     338     339     340     341     342     343     344
     345     346     347     348     349     350     351     352
     353     354     355     356     357     358     359     360
     361     362     363     364     365     366     367     368
     369     370     371     372     373     374     375     376
     377     378     379     380     381     382     383     384
     385     386     387     388     389     390     391     392
     393     394     395     396     397     398     399     400
     401     402     403     404     405     406     407     408
     409     410     411     412     413     414     415     416
     417     418     419     420     421     422     423     424
     425     426     427     428     429     430     431     432
     433     434     435     436     437     438     439     440
     441     442     443     444     445     446     447     448
     449     450     451     452     453     454     455     456
     457     458     459     460     461     462     463     464
     465     466     467     468     469     470     471     472
     473     474     475     476     477     478     479     480
     481     482     483     484     485     486     487     488
     489     490     491     492     493     494     495     496
     497     498     499     500     501     502     503     504
     505     506     507     508     509     510     511     512
     513     514     515     516     517     518     519     520
     521     522     523     524     525     526     527     528
     529     530     531     532     533     534     535     536
     537     538     539     540     541     542     543     544
     545     546     547     548     549     550     551     552
     553     554     555     556     557     558     559     560
     561     562     563     564     565     566     567     568
     569     570     571     572     573     574     575     576
     577     578     579     580     581     582     583     584
     585     586     587     588     589     590     591     592
     593     594     595     596     597     598     599     600
     601     602     603     604     605     606     607     608
     609     610     611     612     613     614     615     616
     617     618     619     620     621     622     623     624
     625     626     627     628     629     630     631     632
     633     634     635     636     637     638     639     640
     641     642     642     652     642     649     642     656
     643     648     643     651     643     641     644     653
     645     654     646     655     647     656     650     641
     654     641     657     643     658     659     659     653
     659     655     659     657     660     661     660     662
     663     664     663     665     666     667     666     668
     669     670     669     671     672     673     672     674
     675     676     675     677     678     679     678     680
     681     682     681     683     684     685     684     686
     687     688     687     689     690     691     690     692
     693     694     693     695     696     697     696     698
     699     700     699     701     702     703     702     704
     705     706     705     707     708     709     708     710
     711     712     711     713     714     715     714     716
     717     718     717     719     720     721     720     722
     723     724     723     725     726     727     726     728
     729     730     729     731     732     733     732     734
     735     736     735     737     738     739     738     740
     741     742     741     743     744     745     744     746
     747     748     747     749     750     751     750     752
     753     754     753     755     756     757     756     758
     759     760     759     761     762     763     762     764
     765     766     765     767     768     769     768     770
     771     772     771     773     774     775     774     776
     777     778     777     779     780     781     780     782
     783     784     783     785     786     787     786     788
     789     790     789     791     792     793     792     794
     795     796     795     797     798     799     798     800
     801     802     801     803     804     805     804     806
     807     808     807     809     810     811     810     812
     813     814     813     815     816     817     816     818
     819     820     819     821     822     823     822     824
     825     826     825     827     828     829     828     830
     831     832     831     833     834     835     834     836
     837     838     837     839     840     841     840     842
     843     844     843     845     846     847     846     848
     849     850     849     851     852     853     852     854
     855     856     855     857     858     859     858     860
     861     862     861     863     864     865     864     866
     867     868     867     869     870     871     870     872
     873     874     873     875     876     877     876     878
     879     880     879     881     882     883     882     884
     885     886     885     887     888     889     888     890
     891     892     891     893     894     895     894     896
     897     898     897     899     900     901     900     902
     903     904     903     905     906     907     906     908
     909     910     909     911     912     913     912     914
     915     916     915     917     918     919     918     920
     921     922     921     923     924     925     924     926
     927     928     927     929     930     931     930     932
     933     934     933     935     936     937     936     938
     939     940     939     941     942     943     942     944
     945     946     945     947     948     949     948     950
     951     952     951     953     954     955     954     956
     957     958     957     959     960     961     960     962
     963     964     963     965     966     967     966     968
     969     970     969     971     972     973     972     974
     975     976     975     977     978     979     978     980
     981     982     981     983     984     985     984     986
     987     988     987     989     990     991     990     992
     993     994     993     995     996     997     996     998
     999    1000     999    1001    1002    1003    1002    1004
    1005    1006    1005    1007    1008    1009    1008    1010
    1011    1012    1011    1013    1014    1015    1014    1016
    1017    1018    1017    1019    1020    1021    1020    1022
    1023    1024    1023    1025    1026    1027    1026    1028
    1029    1030    1029    1031    1032    1033    1032    1034
    1035    1036    1035    1037    1038    1039    1038    1040
    1041    1042    1041    1043    1044    1045    1044    1046
    1047    1048    1047    1049    1050    1051    1050    1052
    1053    1054    1053    1055    1056    1057    1056    1058
    1059    1060    1059    1061    1062    1063    1062    1064
    1065    1066    1065    1067    1068    1069    1068    1070
    1071    1072    1071    1073    1074    1075    1074    1076
    1077    1078    1077    1079    1080    1081    1080    1082
    1083    1084    1083    1085    1086    1087    1086    1088
    1089    1090    1089    1091    1092    1093    1092    1094
    1095    1096    1095    1097    1098    1099    1098    1100
    1101    1102    1101    1103    1104    1105    1104    1106
    1107    1108    1107    1109    1110    1111    1110    1112
    1113    1114    1113    1115    1116    1117    1116    1118
    1119    1120    1119    1121    1122    1123    1122    1124
    1125    1126    1125    1127    1128    1129    1128    1130
    1131    1132    1131    1133    1134    1135    1134    1136
    1137    1138    1137    1139    1140    1141    1140    1142
    1143    1144    1143    1145    1146    1147    1146    1148
    1149    1150    1149    1151    1152    1153    1152    1154
    1155    1156    1155    1157    1158    1159    1158    1160
    1161    1162    1161    1163    1164    1165    1164    1166
    1167    1168    1167    1169    1170    1171    1170    1172
    1173    1174    1173    1175    1176    1177    1176    1178
    1179    1180    1179    1181    1182    1183    1182    1184
    1185    1186    1185    1187    1188    1189    1188    1190
    1191    1192    1191    1193    1194    1195    1194    1196
    1197    1198    1197    1199    1200    1201    1200    1202
    1203    1204    1203    1205    1206    1207    1206    1208
    1209    1210    1209    1211    1212    1213    1212    1214
    1215    1216    1215    1217    1218    1219    1218    1220
    1221    1222    1221    1223    1224    1225    1224    1226

     590 !NTHETA: angles
       1     329     330       2     331     332       3     333     334
       4     335     336       9     345     346       9     401     402
       9     403     404      10     347     348      10     403     404
      10     405     406      11     349     350      11     405     406
      11     407     408      12     351     352      12     407     408
      13     409     410      13     411     412      14     411     412
      14     413     414      15     413     414      15     415     416
      16     415     416      17     361     362      17     417     418
      17     419     420      18     363     364      18     419     420
      18     421     422      19     365     366      19     421     422
      19     423     424      20     367     368      20     423     424
      21     425     426      21     427     428      22     427     428
      22     429     430      23     429     430      23     431     432
      24     431     432      25     377     378      25     433     434
      25     435     436      26     379     380      26     435     436
      26     437     438      27     381     382      27     437     438
      27     439     440      28     383     384      28     439     440
      29     441     442      29     443     444      30     443     444
      30     445     446      31     445     446      31     447     448
      32     447     448      33     393     394      33     449     450
      33     451     452      34     395     396      34     451     452
      34     453     454      35     397     398      35     453     454
      35     455     456      36     399     400      36     455     456
      37     457     458      37     459     460      38     459     460
      38     461     462      39     461     462      39     463     464
      40     463     464      41     337     338      42     337     338
      42     339     340      43     339     340      43     341     342
      44     341     342      44     343     344      45     345     346
      45     401     402      46     345     346      46     347     348
      46     403     404      47     347     348      47     349     350
      47     405     406      48     349     350      48     351     352
      48     407     408      49     353     354      50     353     354
      50     355     356      51     355     356      51     357     358
      52     357     358      52     359     360      53     361     362
      53     417     418      54     361     362      54     363     364
      54     419     420      55     363     364      55     365     366
      55     421     422      56     365     366      56     367     368
      56     423     424      57     369     370      58     369     370
      58     371     372      59     371     372      59     373     374
      60     373     374      60     375     376      61     377     378
      61     433     434      62     377     378      62     379     380
      62     435     436      63     379     380      63     381     382
      63     437     438      64     381     382      64     383     384
      64     439     440      65     385     386      66     385     386
      66     387     388      67     387     388      67     389     390
      68     389     390      68     391     392      69     393     394
      69     449     450      70     393     394      70     395     396
      70     451     452      71     395     396      71     397     398
      71     453     454      72     397     398      72     399     400
      72     455     456      77     465     466      78     467     468
      79     469     470      80     471     472      81     481     482
      81     561     562      82     483     484      82     561     562
      82     563     564      83     485     486      83     563     564
      83     565     566      84     487     488      84     565     566
      84     567     568      85     489     490      85     569     570
      86     491     492      86     569     570      86     571     572
      87     493     494      87     571     572      87     573     574
      88     495     496      88     573     574      88     575     576
      89     497     498      89     577     578      90     499     500
      90     577     578      90     579     580      91     501     502
      91     579     580      91     581     582      92     503     504
      92     581     582      92     583     584      93     505     506
      93     585     586      94     507     508      94     585     586
      94     587     588      95     509     510      95     587     588
      95     589     590      96     511     512      96     589     590
      96     591     592      97     513     514      97     593     594
      98     515     516      98     593     594      98     595     596
      99     517     518      99     595     596      99     597     598
     100     519     520     100     597     598     100     599     600
     101     521     522     101     601     602     102     523     524
     102     601     602     102     603     604     103     525     526
     103     603     604     103     605     606     104     527     528
     104     605     606     104     607     608     105     529     530
     105     609     610     106     531     532     106     609     610
     106     611     612     107     533     534     107     611     612
     107     613     614     108     535     536     108     613     614
     108     615     616     109     537     538     109     617     618
     110     539     540     110     617     618     110     619     620
     111     541     542     111     619     620     111     621     622
     112     543     544     112     621     622     112     623     624
     113     545     546     113     625     626     114     547     548
     114     625     626     114     627     628     115     549     550
     115     627     628     115     629     630     116     551     552
     116     629     630     116     631     632     117     553     554
     117     633     634     118     555     556     118     633     634
     118     635     636     119     557     558     119     635     636
     119     637     638     120     559     560     120     637     638
     120     639     640     121     481     482     121     483     484
     121     561     562     122     483     484     122     485     486
     122     563     564     123     485     486     123     487     488
     123     565     566     124     487     488     124     567     568
     125     489     490     125     491     492     125     569     570
     126     491     492     126     493     494     126     571     572
     127     493     494     127     495     496     127     573     574
     128     495     496     128     575     576     129     497     498
     129     499     500     129     577     578     130     499     500
     130     501     502     130     579     580     131     501     502
     131     503     504     131     581     582     132     503     504
     132     583     584     133     505     506     133     507     508
     133     585     586     134     507     508     134     509     510
     134     587     588     135     509     510     135     511     512
     135     589     590     136     511     512     136     591     592
     137     513     514     137     515     516     137     593     594
     138     515     516     138     517     518     138     595     596
     139     517     518     139     519     520     139     597     598
     140     519     520     140     599     600     141     521     522
     141     523     524     141     601     602     142     523     524
     142     525     526     142     603     604     143     525     526
     143     527     528     143     605     606     144     527     528
     144     607     608     145     529     530     145     531     532
     145     609     610     146     531     532     146     533     534
     146     611     612     147     533     534     147     535     536
     147     613     614     148     535     536     148     615     616
     149     537     538     149     539     540     149     617     618
     150     539     540     150     541     542     150     619     620
     151     541     542     151     543     544     151     621     622
     152     543     544     152     623     624     153     545     546
     153     547     548     153     625     626     154     547     548
     154     549     550     154     627     628     155     549     550
     155     551     552     155     629     630     156     551     552
     156     631     632     157     553     554     157     555     556
     157     633     634     158     555     556     158     557     558
     158     635     636     159     557     558     159     559     560
     159     637     638     160     559     560     160     639     640
     641     642     656     641     642     649     641     642     652
     642     656     647     643     641     642     643     641     654
     643     641     650     644     653     659     645     654     641
     646     655     659     648     643     641     648     643     651
     649     642     656     650     641     642     650     641     654
     651     643     641     652     642     656     652     642     649
     653     659     657     653     659     655     654     641     642
     655     659     657     657     643     641     657     643     651
     657     643     648     658     659     657     658     659     655
     658     659     653     659     657     643     661     660     662
     664     663     665     667     666     668     670     669     671
     673     672     674     676     675     677     679     678     680
     682     681     683     685     684     686     688     687     689
     691     690     692     694     693     695     697     696     698
     700     699     701     703     702     704     706     705     707
     709     708     710     712     711     713     715     714     716
     718     717     719     721     720     722     724     723     725
     727     726     728     730     729     731     733     732     734
     736     735     737     739     738     740     742     741     743
     745     744     746     748     747     749     751     750     752
     754     753     755     757     756     758     760     759     761
     763     762     764     766     765     767     769     768     770
     772     771     773     775     774     776     778     777     779
     781     780     782     784     783     785     787     786     788
     790     789     791     793     792     794     796     795     797
     799     798     800     802     801     803     805     804     806
     808     807     809     811     810     812     814     813     815
     817     816     818     820     819     821     823     822     824
     826     825     827     829     828     830     832     831     833
     835     834     836     838     837     839     841     840     842
     844     843     845     847     846     848     850     849     851
     853     852     854     856     855     857     859     858     860
     862     861     863     865     864     866     868     867     869
     871     870     872     874     873     875     877     876     878
     880     879     881     883     882     884     886     885     887
     889     888     890     892     891     893     895     894     896
     898     897     899     901     900     902     904     903     905
     907     906     908     910     909     911     913     912     914
     916     915     917     919     918     920     922     921     923
     925     924     926     928     927     929     931     930     932
     934     933     935     937     936     938     940     939     941
     943     942     944     946     945     947     949     948     950
     952     951     953     955     954     956     958     957     959
     961     960     962     964     963     965     967     966     968
     970     969     971     973     972     974     976     975     977
     979     978     980     982     981     983     985     984     986
     988     987     989     991     990     992     994     993     995
     997     996     998    1000     999    1001    1003    1002    1004
    1006    1005    1007    1009    1008    1010    1012    1011    1013
    1015    1014    1016    1018    1017    1019    1021    1020    1022
    1024    1023    1025    1027    1026    1028    1030    1029    1031
    1033    1032    1034    1036    1035    1037    1039    1038    1040
    1042    1041    1043    1045    1044    1046    1048    1047    1049
    1051    1050    1052    1054    1053    1055    1057    1056    1058
    1060    1059    1061    1063    1062    1064    1066    1065    1067
    1069    1068    1070    1072    1071    1073    1075    1074    1076
    1078    1077    1079    1081    1080    1082    1084    1083    1085
    1087    1086    1088    1090    1089    1091    1093    1092    1094
    1096    1095    1097    1099    1098    1100    1102    1101    1103
    1105    1104    1106    1108    1107    1109    1111    1110    1112
    1114    1113    1115    1117    1116    1118    1120    1119    1121
    1123    1122    1124    1126    1125    1127    1129    1128    1130
    1132    1131    1133    1135    1134    1136    1138    1137    1139
    1141    1140    1142    1144    1143    1145    1147    1146    1148
    1150    1149    1151    1153    1152    1154    1156    1155    1157
    1159    1158    1160    1162    1161    1163    1165    1164    1166
    1168    1167    1169    1171    1170    1172    1174    1173    1175
    1177    1176    1178    1180    1179    1181    1183    1182    1184
    1186    1185    1187    1189    1188    1190    1192    1191    1193
    1195    1194    1196    1198    1197    1199    1201    1200    1202
    1204    1203    1205    1207    1206    1208    1210    1209    1211
    1213    1212    1214    1216    1215    1217    1219    1218    1220
    1222    1221    1223    1225    1224    1226

      36 !NPHI: dihedrals
     641     643     657     659     641     642     656     647
     642     641     643     657     642     641     643     648
     642     641     643     651     642     641     654     645
     643     657     659     658     643     657     659     653
     643     657     659     655     643     641     654     645
     643     641     642     652     643     641     642     649
     643     641     642     656     644     653     659     658
     644     653     659     655     644     653     659     657
     645     654     641     650     646     655     659     658
     646     655     659     653     646     655     659     657
     647     656     642     652     647     656     642     649
     648     643     657     659     648     643     641     650
     648     643     641     654     649     642     641     650
     649     642     641     654     650     641     643     657
     650     641     643     651     650     641     642     652
     650     641     642     656     651     643     657     659
     651     643     641     654     652     642     641     654
     654     641     643     657     654     641     642     656

       8 !NIMPHI: impropers
     641     642     643     654     641     654     643     650
     642     656     641     652     642     652     641     649
     643     657     641     648     643     657     641     651
     659     653     657     655     659     653     657     658

       0 !NDON: donors


       0 !NACC: acceptors


       0 !NNB

       0       0       0       0       0       0       0       0
       0       0       0       0       0       0       0       0
       0       0       0       0       0       0       0       0
       0       0       0       0       0       0       0       0
       0       0       0       0       0       0       0       0
       0       0       0       0       0       0       0       0
       0       0       0       0       0       0       0       0
       0       0       0       0       0       0       0       0
       0       0       0       0       0       0       0       0
       0       0       0       0       0       0       0       0
       0       0       0       0       0       0       0       0
       0       0       0       0       0       0       0       0
       0       0       0       0       0       0       0       0
       0       0       0       0       0       0       0       0
       0       0       0       0       0       0       0       0
       0       0       0       0       0       0       0       0
       0       0       0       0       0       0       0       0
       0       0       0       0       0       0       0       0
       0       0       0       0       0       0       0       0
       0       0       0       0       0       0       0       0
       0       0       0       0       0       0       0       0
       0       0       0       0       0       0       0       0
       0       0       0       0       0       0       0       0
       0       0       0       0       0       0       0       0
       0       0       0       0       0       0       0       0
       0       0       0       0       0       0       0       0
       0       0       0       0       0       0       0       0
       0       0       0       0       0       0       0       0
       0       0       0       0       0       0       0       0
       0       0       0       0       0       0       0       0
       0       0       0       0       0       0       0       0
       0       0       0       0       0       0       0       0
       0       0       0       0       0       0       0       0
       0       0       0       0       0       0       0       0
       0       0       0       0       0       0       0       0
       0       0       0       0       0       0       0       0
       0       0       0       0       0       0       0       0
       0       0       0       0       0       0       0       0
       0       0       0       0       0       0       0       0
       0       0       0       0       0       0       0       0
       0       0       0       0       0       0       0       0
       0       0       0       0       0       0       0       0
       0       0       0       0       0       0       0       0
       0       0       0       0       0       0       0       0
       0       0       0       0       0       0       0       0
       0       0       0       0       0       0       0       0
       0       0       0       0       0       0       0       0
       0       0       0       0       0       0       0       0
       0       0       0       0       0       0       0       0
       0       0       0       0       0       0       0       0
       0       0       0       0       0       0       0       0
       0       0       0       0       0       0       0       0
       0       0       0       0       0       0       0       0
       0       0       0       0       0       0       0       0
       0       0       0       0       0       0       0       0
       0       0       0       0       0       0       0       0
       0       0       0       0       0       0       0       0
       0       0       0       0       0       0       0       0
       0       0       0       0       0       0       0       0
       0       0       0       0       0       0       0       0
       0       0       0       0       0       0       0       0
       0       0       0       0       0       0       0       0
       0       0       0       0       0       0       0       0
       0       0       0       0       0       0       0       0
       0       0       0       0       0       0       0       0
       0       0       0       0       0       0       0       0
       0       0       0       0       0       0       0       0
       0       0       0       0       0       0       0       0
       0       0       0       0       0       0       0       0
       0       0       0       0       0       0       0       0
       0       0       0       0       0       0       0       0
       0       0       0       0       0       0       0       0
       0       0       0       0       0       0       0       0
       0       0       0       0       0       0       0       0
       0       0       0       0       0       0       0       0
       0       0       0       0       0       0       0       0
       0       0       0       0       0       0       0       0
       0       0       0       0       0       0       0       0
       0       0       0       0       0       0       0       0
       0       0       0       0       0       0       0       0
       0       0       0       0       0       0       0       0
       0       0       0       0       0       0       0       0
       0       0       0       0       0       0       0       0
       0       0       0       0       0       0       0       0
       0       0       0       0       0       0       0       0
       0       0       0       0       0       0       0       0
       0       0       0       0       0       0       0       0
       0       0       0       0       0       0       0       0
       0       0       0       0       0       0       0       0
       0       0       0       0       0       0       0       0
       0       0       0       0       0       0       0       0
       0       0       0       0       0       0       0       0
       0       0       0       0       0       0       0       0
       0       0       0       0       0       0       0       0
       0       0       0       0       0       0       0       0
       0       0       0       0       0       0       0       0
       0       0       0       0       0       0       0       0
       0       0       0       0       0       0       0       0
       0       0       0       0       0       0       0       0
       0       0       0       0       0       0       0       0
       0       0       0       0       0       0       0       0
       0       0       0       0       0       0       0       0
       0       0       0       0       0       0       0       0
       0       0       0       0       0       0       0       0
       0       0       0       0       0       0       0       0
       0       0       0       0       0       0       0       0
       0       0       0       0       0       0       0       0
       0       0       0       0       0       0       0       0
       0       0       0       0       0       0       0       0
       0       0       0       0       0       0       0       0
       0       0       0       0       0       0       0       0
       0       0       0       0       0       0       0       0
       0       0       0       0       0       0       0       0
       0       0       0       0       0       0       0       0
       0       0       0       0       0       0       0       0
       0       0       0       0       0       0       0       0
       0       0       0       0       0       0       0       0
       0       0       0       0       0       0       0       0
       0       0       0       0       0       0       0       0
       0       0       0       0       0       0       0       0
       0       0       0       0       0       0       0       0
       0       0       0       0       0       0       0       0
       0       0       0       0       0       0       0       0
       0       0       0       0       0       0       0       0
       0       0       0       0       0       0       0       0
       0       0       0       0       0       0       0       0
       0       0       0       0       0       0       0       0
       0       0       0       0       0       0       0       0
       0       0       0       0       0       0       0       0
       0       0       0       0       0       0       0       0
       0       0       0       0       0       0       0       0
       0       0       0       0       0       0       0       0
       0       0       0       0       0       0       0       0
       0       0       0       0       0       0       0       0
       0       0       0       0       0       0       0       0
       0       0       0       0       0       0       0       0
       0       0       0       0       0       0       0       0
       0       0       0       0       0       0       0       0
       0       0       0       0       0       0       0       0
       0       0       0       0       0       0       0       0
       0       0       0       0       0       0       0       0
       0       0       0       0       0       0       0       0
       0       0       0       0       0       0       0       0
       0       0       0       0       0       0       0       0
       0       0       0       0       0       0       0       0
       0       0       0       0       0       0       0       0
       0       0       0       0       0       0       0       0
       0       0       0       0       0       0       0       0
       0       0       0       0       0       0       0       0
       0       0       0       0       0       0       0       0
       0       0       0       0       0       0       0       0
       0       0       0       0       0       0       0       0
       0       0       0       0       0       0       0       0
       0       0

       1       0 !NGRP
       0       0       0

